 Entering Gaussian System, Link 0=g09
 Input=buta01.com
 Output=buta01.log
 Initial command:
 /home/student/g09/l1.exe /home/student/singh/Gau-20588.inp -scrdir=/home/student/singh/
 Entering Link 1 = /home/student/g09/l1.exe PID=     20590.
  
 Copyright (c) 1988,1990,1992,1993,1995,1998,2003,2009,2011,
            Gaussian, Inc.  All Rights Reserved.
  
 This is part of the Gaussian(R) 09 program.  It is based on
 the Gaussian(R) 03 system (copyright 2003, Gaussian, Inc.),
 the Gaussian(R) 98 system (copyright 1998, Gaussian, Inc.),
 the Gaussian(R) 94 system (copyright 1995, Gaussian, Inc.),
 the Gaussian 92(TM) system (copyright 1992, Gaussian, Inc.),
 the Gaussian 90(TM) system (copyright 1990, Gaussian, Inc.),
 the Gaussian 88(TM) system (copyright 1988, Gaussian, Inc.),
 the Gaussian 86(TM) system (copyright 1986, Carnegie Mellon
 University), and the Gaussian 82(TM) system (copyright 1983,
 Carnegie Mellon University). Gaussian is a federally registered
 trademark of Gaussian, Inc.
  
 This software contains proprietary and confidential information,
 including trade secrets, belonging to Gaussian, Inc.
  
 This software is provided under written license and may be
 used, copied, transmitted, or stored only in accord with that
 written license.
  
 The following legend is applicable only to US Government
 contracts under FAR:
  
                    RESTRICTED RIGHTS LEGEND
  
 Use, reproduction and disclosure by the US Government is
 subject to restrictions as set forth in subparagraphs (a)
 and (c) of the Commercial Computer Software - Restricted
 Rights clause in FAR 52.227-19.
  
 Gaussian, Inc.
 340 Quinnipiac St., Bldg. 40, Wallingford CT 06492
  
  
 ---------------------------------------------------------------
 Warning -- This program may not be used in any manner that
 competes with the business of Gaussian, Inc. or will provide
 assistance to any competitor of Gaussian, Inc.  The licensee
 of this program is prohibited from giving any competitor of
 Gaussian, Inc. access to this program.  By using this program,
 the user acknowledges that Gaussian, Inc. is engaged in the
 business of creating and licensing software in the field of
 computational chemistry and represents and warrants to the
 licensee that it is not a competitor of Gaussian, Inc. and that
 it will not use this program in any manner prohibited above.
 ---------------------------------------------------------------
  

 Cite this work as:
 Gaussian 09, Revision C.01,
 M. J. Frisch, G. W. Trucks, H. B. Schlegel, G. E. Scuseria, 
 M. A. Robb, J. R. Cheeseman, G. Scalmani, V. Barone, B. Mennucci, 
 G. A. Petersson, H. Nakatsuji, M. Caricato, X. Li, H. P. Hratchian, 
 A. F. Izmaylov, J. Bloino, G. Zheng, J. L. Sonnenberg, M. Hada, 
 M. Ehara, K. Toyota, R. Fukuda, J. Hasegawa, M. Ishida, T. Nakajima, 
 Y. Honda, O. Kitao, H. Nakai, T. Vreven, J. A. Montgomery, Jr., 
 J. E. Peralta, F. Ogliaro, M. Bearpark, J. J. Heyd, E. Brothers, 
 K. N. Kudin, V. N. Staroverov, T. Keith, R. Kobayashi, J. Normand, 
 K. Raghavachari, A. Rendell, J. C. Burant, S. S. Iyengar, J. Tomasi, 
 M. Cossi, N. Rega, J. M. Millam, M. Klene, J. E. Knox, J. B. Cross, 
 V. Bakken, C. Adamo, J. Jaramillo, R. Gomperts, R. E. Stratmann, 
 O. Yazyev, A. J. Austin, R. Cammi, C. Pomelli, J. W. Ochterski, 
 R. L. Martin, K. Morokuma, V. G. Zakrzewski, G. A. Voth, 
 P. Salvador, J. J. Dannenberg, S. Dapprich, A. D. Daniels, 
 O. Farkas, J. B. Foresman, J. V. Ortiz, J. Cioslowski, 
 and D. J. Fox, Gaussian, Inc., Wallingford CT, 2010.
 
 ******************************************
 Gaussian 09:  EM64L-G09RevC.01 23-Sep-2011
                 2-Mar-2021 
 ******************************************
 %chk=buta01.chk
 --------------------------------
 # freq opt b3lyp/6-31g* pop=full
 --------------------------------
 1/14=-1,18=20,19=15,26=3,38=1/1,3;
 2/9=110,12=2,17=6,18=5,40=1/2;
 3/5=1,6=6,7=1,11=2,16=1,25=1,30=1,71=1,74=-5/1,2,3;
 4//1;
 5/5=2,38=5/2;
 6/7=3,28=1/1;
 7//1,2,3,16;
 1/14=-1,18=20,19=15/3(2);
 2/9=110/2;
 99//99;
 2/9=110/2;
 3/5=1,6=6,7=1,11=2,16=1,25=1,30=1,71=1,74=-5/1,2,3;
 4/5=5,16=3/1;
 5/5=2,38=5/2;
 7//1,2,3,16;
 1/14=-1,18=20,19=15/3(-5);
 2/9=110/2;
 6/7=3,19=2,28=1/1;
 99/9=1/99;
 -------------------
 Title Card Required
 -------------------
 Charge =  0 Multiplicity = 1
 Symbolic Z-Matrix:
 C                     1.10713  -1.48465   0. 
 H                     2.09999  -1.03987   0. 
 H                     1.05996  -2.56941   0. 
 C                    -0.00001  -0.72877   0. 
 H                    -0.97811  -1.21105   0. 
 C                     0.        0.72876   0. 
 H                     0.97811   1.21102   0. 
 C                    -1.10712   1.48466   0. 
 H                    -2.1       1.03991   0. 
 H                    -1.05992   2.56941   0. 
 

 GradGradGradGradGradGradGradGradGradGradGradGradGradGradGradGradGradGrad
 Berny optimization.
 Initialization pass.
                           ----------------------------
                           !    Initial Parameters    !
                           ! (Angstroms and Degrees)  !
 --------------------------                            --------------------------
 ! Name  Definition              Value          Derivative Info.                !
 --------------------------------------------------------------------------------
 ! R1    R(1,2)                  1.0879         estimate D2E/DX2                !
 ! R2    R(1,3)                  1.0858         estimate D2E/DX2                !
 ! R3    R(1,4)                  1.3406         estimate D2E/DX2                !
 ! R4    R(4,5)                  1.0905         estimate D2E/DX2                !
 ! R5    R(4,6)                  1.4575         estimate D2E/DX2                !
 ! R6    R(6,7)                  1.0905         estimate D2E/DX2                !
 ! R7    R(6,8)                  1.3406         estimate D2E/DX2                !
 ! R8    R(8,9)                  1.0879         estimate D2E/DX2                !
 ! R9    R(8,10)                 1.0858         estimate D2E/DX2                !
 ! A1    A(2,1,3)              116.6217         estimate D2E/DX2                !
 ! A2    A(2,1,4)              121.5456         estimate D2E/DX2                !
 ! A3    A(3,1,4)              121.8327         estimate D2E/DX2                !
 ! A4    A(1,4,5)              119.4305         estimate D2E/DX2                !
 ! A5    A(1,4,6)              124.3223         estimate D2E/DX2                !
 ! A6    A(5,4,6)              116.2472         estimate D2E/DX2                !
 ! A7    A(4,6,7)              116.2462         estimate D2E/DX2                !
 ! A8    A(4,6,8)              124.3235         estimate D2E/DX2                !
 ! A9    A(7,6,8)              119.4304         estimate D2E/DX2                !
 ! A10   A(6,8,9)              121.5464         estimate D2E/DX2                !
 ! A11   A(6,8,10)             121.832          estimate D2E/DX2                !
 ! A12   A(9,8,10)             116.6216         estimate D2E/DX2                !
 ! D1    D(2,1,4,5)            180.0            estimate D2E/DX2                !
 ! D2    D(2,1,4,6)              0.0            estimate D2E/DX2                !
 ! D3    D(3,1,4,5)              0.0            estimate D2E/DX2                !
 ! D4    D(3,1,4,6)            180.0            estimate D2E/DX2                !
 ! D5    D(1,4,6,7)              0.0            estimate D2E/DX2                !
 ! D6    D(1,4,6,8)            180.0            estimate D2E/DX2                !
 ! D7    D(5,4,6,7)            180.0            estimate D2E/DX2                !
 ! D8    D(5,4,6,8)              0.0            estimate D2E/DX2                !
 ! D9    D(4,6,8,9)              0.0            estimate D2E/DX2                !
 ! D10   D(4,6,8,10)           180.0            estimate D2E/DX2                !
 ! D11   D(7,6,8,9)            180.0            estimate D2E/DX2                !
 ! D12   D(7,6,8,10)             0.0            estimate D2E/DX2                !
 --------------------------------------------------------------------------------
 Trust Radius=3.00D-01 FncErr=1.00D-07 GrdErr=1.00D-06
 Number of steps in this run=     43 maximum allowed number of steps=    100.
 GradGradGradGradGradGradGradGradGradGradGradGradGradGradGradGradGradGrad

                          Input orientation:                          
 ---------------------------------------------------------------------
 Center     Atomic      Atomic             Coordinates (Angstroms)
 Number     Number       Type             X           Y           Z
 ---------------------------------------------------------------------
      1          6           0        1.107129   -1.484654    0.000000
      2          1           0        2.099989   -1.039868    0.000000
      3          1           0        1.059957   -2.569406    0.000000
      4          6           0       -0.000011   -0.728770    0.000000
      5          1           0       -0.978112   -1.211048    0.000000
      6          6           0        0.000000    0.728758    0.000000
      7          1           0        0.978110    1.211018    0.000000
      8          6           0       -1.107123    1.484663    0.000000
      9          1           0       -2.099997    1.039911    0.000000
     10          1           0       -1.059916    2.569414    0.000000
 ---------------------------------------------------------------------
                    Distance matrix (angstroms):
                    1          2          3          4          5
     1  C    0.000000
     2  H    1.087936   0.000000
     3  H    1.085777   1.849636   0.000000
     4  C    1.340567   2.122918   2.124023   0.000000
     5  H    2.103114   3.082857   2.449257   1.090538   0.000000
     6  C    2.474859   2.745540   3.464303   1.457528   2.172453
     7  H    2.698758   2.514975   3.781310   2.172441   3.113392
     8  C    3.704019   4.081522   4.596924   2.474870   2.698796
     9  H    4.081554   4.686722   4.797132   2.745573   2.515043
    10  H    4.596907   4.797074   5.558897   3.464306   3.781347
                    6          7          8          9         10
     6  C    0.000000
     7  H    1.090538   0.000000
     8  C    1.340565   2.103112   0.000000
     9  H    2.122923   3.082859   1.087935   0.000000
    10  H    2.124014   2.449243   1.085778   1.849635   0.000000
 Stoichiometry    C4H6
 Framework group  CS[SG(C4H6)]
 Deg. of freedom    17
 Full point group                 CS      NOp   2
 Largest Abelian subgroup         CS      NOp   2
 Largest concise Abelian subgroup C1      NOp   1
                         Standard orientation:                         
 ---------------------------------------------------------------------
 Center     Atomic      Atomic             Coordinates (Angstroms)
 Number     Number       Type             X           Y           Z
 ---------------------------------------------------------------------
      1          6           0        1.107129   -1.484654    0.000000
      2          1           0        2.099989   -1.039868    0.000000
      3          1           0        1.059957   -2.569406    0.000000
      4          6           0       -0.000011   -0.728770    0.000000
      5          1           0       -0.978112   -1.211048    0.000000
      6          6           0        0.000000    0.728758    0.000000
      7          1           0        0.978110    1.211018    0.000000
      8          6           0       -1.107123    1.484663    0.000000
      9          1           0       -2.099997    1.039911    0.000000
     10          1           0       -1.059916    2.569414    0.000000
 ---------------------------------------------------------------------
 Rotational constants (GHZ):     42.3148504      4.4081589      3.9922639
 Standard basis: 6-31G(d) (6D, 7F)
 There are    56 symmetry adapted basis functions of A'  symmetry.
 There are    16 symmetry adapted basis functions of A"  symmetry.
 Integral buffers will be    131072 words long.
 Raffenetti 2 integral format.
 Two-electron integral symmetry is turned on.
    72 basis functions,   136 primitive gaussians,    72 cartesian basis functions
    15 alpha electrons       15 beta electrons
       nuclear repulsion energy       103.5446317393 Hartrees.
 NAtoms=   10 NActive=   10 NUniq=   10 SFac= 1.00D+00 NAtFMM=   60 NAOKFM=F Big=F
 One-electron integrals computed using PRISM.
 NBasis=    72 RedAO= T  NBF=    56    16
 NBsUse=    72 1.00D-06 NBFU=    56    16
 Harris functional with IExCor=  402 diagonalized for initial guess.
 ExpMin= 1.61D-01 ExpMax= 3.05D+03 ExpMxC= 4.57D+02 IAcc=1 IRadAn=         1 AccDes= 0.00D+00
 HarFok:  IExCor=  402 AccDes= 0.00D+00 IRadAn=         1 IDoV= 1
 ScaDFX=  1.000000  1.000000  1.000000  1.000000
 FoFCou: FMM=F IPFlag=           0 FMFlag=      100000 FMFlg1=           0
         NFxFlg=           0 DoJE=T BraDBF=F KetDBF=T FulRan=T
         Omega=  0.000000  0.000000  1.000000  0.000000  0.000000 ICntrl=     500 IOpCl=  0
         NMat0=    1 NMatS0=    1 NMatT0=    0 NMatD0=    1 NMtDS0=    0 NMtDT0=    0
         I1Cent=           4 NGrid=           0.
 Petite list used in FoFCou.
 Initial guess orbital symmetries:
       Occupied  (A') (A') (A') (A') (A') (A') (A') (A') (A') (A')
                 (A') (A') (A') (A") (A")
       Virtual   (A") (A") (A') (A') (A') (A') (A') (A') (A') (A')
                 (A') (A') (A') (A") (A") (A') (A') (A') (A') (A")
                 (A") (A') (A') (A') (A') (A') (A') (A') (A') (A')
                 (A') (A") (A') (A') (A") (A") (A") (A") (A') (A')
                 (A') (A') (A") (A') (A') (A') (A') (A") (A") (A')
                 (A') (A') (A') (A') (A') (A') (A')
 The electronic state of the initial guess is 1-A'.
 Requested convergence on RMS density matrix=1.00D-08 within 128 cycles.
 Requested convergence on MAX density matrix=1.00D-06.
 Requested convergence on             energy=1.00D-06.
 No special actions if energy rises.
 Keep R1 ints in memory in canonical form, NReq=4464884.
 Integral accuracy reduced to 1.0D-05 until final iterations.
 Initial convergence to 1.0D-05 achieved.  Increase integral accuracy.
 SCF Done:  E(RB3LYP) =  -155.992138600     A.U. after   12 cycles
             Convg  =    0.2306D-08             -V/T =  2.0103

 **********************************************************************

            Population analysis using the SCF density.

 **********************************************************************

 Orbital symmetries:
       Occupied  (A') (A') (A') (A') (A') (A') (A') (A') (A') (A')
                 (A') (A') (A') (A") (A")
       Virtual   (A") (A") (A') (A') (A') (A') (A') (A') (A') (A')
                 (A') (A') (A') (A") (A") (A') (A') (A") (A') (A")
                 (A') (A') (A') (A') (A') (A') (A') (A') (A') (A')
                 (A') (A') (A") (A') (A") (A") (A") (A") (A') (A')
                 (A') (A') (A") (A') (A') (A') (A') (A") (A") (A')
                 (A') (A') (A') (A') (A') (A') (A')
 The electronic state is 1-A'.
 Alpha  occ. eigenvalues --  -10.19246 -10.19211 -10.18379 -10.18379  -0.80142
 Alpha  occ. eigenvalues --   -0.72964  -0.60310  -0.55036  -0.46394  -0.45916
 Alpha  occ. eigenvalues --   -0.39136  -0.38493  -0.34434  -0.31981  -0.22902
 Alpha virt. eigenvalues --   -0.02250   0.08547   0.11555   0.12565   0.13073
 Alpha virt. eigenvalues --    0.17487   0.19251   0.21195   0.32519   0.33674
 Alpha virt. eigenvalues --    0.39728   0.47197   0.51674   0.53025   0.57791
 Alpha virt. eigenvalues --    0.60789   0.62698   0.66255   0.67113   0.67143
 Alpha virt. eigenvalues --    0.69332   0.84373   0.85784   0.86383   0.88847
 Alpha virt. eigenvalues --    0.93869   0.94507   0.96240   1.06599   1.11827
 Alpha virt. eigenvalues --    1.13050   1.31993   1.34567   1.35377   1.42918
 Alpha virt. eigenvalues --    1.54129   1.65833   1.76693   1.82341   1.87591
 Alpha virt. eigenvalues --    1.94649   2.05192   2.09990   2.11490   2.16047
 Alpha virt. eigenvalues --    2.31577   2.39847   2.40507   2.47969   2.59850
 Alpha virt. eigenvalues --    2.73610   2.92603   2.98310   4.08646   4.12630
 Alpha virt. eigenvalues --    4.21291   4.44390
     Molecular Orbital Coefficients:
                           1         2         3         4         5
                           O         O         O         O         O
     Eigenvalues --   -10.19246 -10.19211 -10.18379 -10.18379  -0.80142
   1 1   C  1S          0.03344  -0.03508   0.97845  -0.16052  -0.09005
   2        2S          0.00120  -0.00144   0.04859  -0.00804   0.17207
   3        2PX         0.00021  -0.00021  -0.00005  -0.00001  -0.05695
   4        2PY        -0.00017   0.00013   0.00005   0.00000   0.04920
   5        2PZ         0.00000   0.00000   0.00000   0.00000   0.00000
   6        3S          0.00356  -0.00309  -0.01306   0.00297   0.14327
   7        3PX        -0.00109   0.00069   0.00085  -0.00043  -0.01129
   8        3PY         0.00126  -0.00131  -0.00066   0.00055   0.00992
   9        3PZ         0.00000   0.00000   0.00000   0.00000   0.00000
  10        4XX        -0.00051   0.00062  -0.00915   0.00149   0.00380
  11        4YY        -0.00043   0.00051  -0.00923   0.00153   0.00230
  12        4ZZ        -0.00045   0.00039  -0.00963   0.00156  -0.00971
  13        4XY         0.00002  -0.00005  -0.00014   0.00000  -0.00453
  14        4XZ         0.00000   0.00000   0.00000   0.00000   0.00000
  15        4YZ         0.00000   0.00000   0.00000   0.00000   0.00000
  16 2   H  1S         -0.00011   0.00011  -0.00031   0.00001   0.04415
  17        2S         -0.00018   0.00026   0.00217  -0.00033   0.00801
  18 3   H  1S         -0.00006   0.00001  -0.00034   0.00005   0.03937
  19        2S          0.00026  -0.00015   0.00212  -0.00022   0.00559
  20 4   C  1S          0.70154  -0.70076  -0.04809   0.00910  -0.13640
  21        2S          0.03471  -0.03508  -0.00291   0.00047   0.26598
  22        2PX         0.00005  -0.00011  -0.00035   0.00013   0.03567
  23        2PY        -0.00012  -0.00033   0.00022  -0.00004   0.03263
  24        2PZ         0.00000   0.00000   0.00000   0.00000   0.00000
  25        3S         -0.00764   0.01412   0.00515  -0.00161   0.16585
  26        3PX        -0.00171   0.00084   0.00148  -0.00089  -0.02608
  27        3PY         0.00084   0.00248  -0.00114   0.00036   0.01156
  28        3PZ         0.00000   0.00000   0.00000   0.00000   0.00000
  29        4XX        -0.00664   0.00634   0.00017  -0.00003   0.00113
  30        4YY        -0.00688   0.00611   0.00019   0.00008   0.00582
  31        4ZZ        -0.00688   0.00666   0.00033  -0.00009  -0.01428
  32        4XY        -0.00016   0.00009   0.00005   0.00000  -0.00191
  33        4XZ         0.00000   0.00000   0.00000   0.00000   0.00000
  34        4YZ         0.00000   0.00000   0.00000   0.00000   0.00000
  35 5   H  1S         -0.00034   0.00017  -0.00006  -0.00004   0.06669
  36        2S          0.00097  -0.00136  -0.00022  -0.00014   0.00411
  37 6   C  1S          0.70063   0.70168  -0.00675  -0.04848  -0.13640
  38        2S          0.03466   0.03512  -0.00048  -0.00291   0.26598
  39        2PX        -0.00005  -0.00011  -0.00001   0.00038  -0.03566
  40        2PY         0.00012  -0.00033  -0.00003  -0.00022  -0.03262
  41        2PZ         0.00000   0.00000   0.00000   0.00000   0.00000
  42        3S         -0.00763  -0.01413   0.00012   0.00539   0.16585
  43        3PX         0.00171   0.00085   0.00037  -0.00168   0.02608
  44        3PY        -0.00084   0.00248   0.00003   0.00119  -0.01157
  45        3PZ         0.00000   0.00000   0.00000   0.00000   0.00000
  46        4XX        -0.00663  -0.00635   0.00002   0.00017   0.00113
  47        4YY        -0.00688  -0.00611   0.00013   0.00015   0.00582
  48        4ZZ        -0.00687  -0.00667   0.00003   0.00034  -0.01428
  49        4XY        -0.00016  -0.00009   0.00001   0.00005  -0.00191
  50        4XZ         0.00000   0.00000   0.00000   0.00000   0.00000
  51        4YZ         0.00000   0.00000   0.00000   0.00000   0.00000
  52 7   H  1S         -0.00034  -0.00017  -0.00005  -0.00005   0.06669
  53        2S          0.00097   0.00136  -0.00020  -0.00016   0.00411
  54 8   C  1S          0.03339   0.03513   0.16061   0.97844  -0.09005
  55        2S          0.00119   0.00144   0.00791   0.04861   0.17207
  56        2PX        -0.00021  -0.00021   0.00002   0.00004   0.05695
  57        2PY         0.00017   0.00013  -0.00001  -0.00004  -0.04920
  58        2PZ         0.00000   0.00000   0.00000   0.00000   0.00000
  59        3S          0.00355   0.00310  -0.00136  -0.01333   0.14327
  60        3PX         0.00109   0.00069   0.00014  -0.00094   0.01129
  61        3PY        -0.00126  -0.00131  -0.00031   0.00080  -0.00992
  62        3PZ         0.00000   0.00000   0.00000   0.00000   0.00000
  63        4XX        -0.00051  -0.00062  -0.00151  -0.00914   0.00380
  64        4YY        -0.00043  -0.00051  -0.00150  -0.00923   0.00230
  65        4ZZ        -0.00045  -0.00039  -0.00160  -0.00962  -0.00971
  66        4XY         0.00002   0.00005  -0.00004  -0.00014  -0.00453
  67        4XZ         0.00000   0.00000   0.00000   0.00000   0.00000
  68        4YZ         0.00000   0.00000   0.00000   0.00000   0.00000
  69 9   H  1S         -0.00011  -0.00011  -0.00009  -0.00030   0.04415
  70        2S         -0.00018  -0.00026   0.00038   0.00217   0.00801
  71 10  H  1S         -0.00006  -0.00001  -0.00006  -0.00034   0.03937
  72        2S          0.00026   0.00015   0.00047   0.00208   0.00559
                           6         7         8         9        10
                           O         O         O         O         O
     Eigenvalues --    -0.72964  -0.60310  -0.55036  -0.46394  -0.45916
   1 1   C  1S          0.13113  -0.11182   0.04777   0.01814  -0.00746
   2        2S         -0.25363   0.22340  -0.09648  -0.03871   0.01382
   3        2PX         0.05623   0.06145  -0.15174  -0.13875   0.21988
   4        2PY        -0.03061  -0.07467  -0.00458   0.26398   0.14601
   5        2PZ         0.00000   0.00000   0.00000   0.00000   0.00000
   6        3S         -0.19915   0.20787  -0.09051  -0.05300   0.04371
   7        3PX        -0.00577   0.02565  -0.05336  -0.04145   0.07753
   8        3PY        -0.00852  -0.03463  -0.00263   0.10873   0.06541
   9        3PZ         0.00000   0.00000   0.00000   0.00000   0.00000
  10        4XX        -0.00421   0.00002   0.00275   0.00288   0.00452
  11        4YY        -0.00235   0.00377  -0.00547  -0.00964  -0.00112
  12        4ZZ         0.01356  -0.01030   0.00434   0.00120  -0.00088
  13        4XY         0.00198   0.00794  -0.00727  -0.00953   0.00532
  14        4XZ         0.00000   0.00000   0.00000   0.00000   0.00000
  15        4YZ         0.00000   0.00000   0.00000   0.00000   0.00000
  16 2   H  1S         -0.07258   0.10206  -0.11191  -0.03199   0.15326
  17        2S         -0.01094   0.04191  -0.06324  -0.02545   0.10572
  18 3   H  1S         -0.07763   0.12168  -0.03920  -0.16625  -0.07784
  19        2S         -0.02270   0.04828  -0.02058  -0.11248  -0.05536
  20 4   C  1S          0.08571   0.07265  -0.08565  -0.03814   0.00921
  21        2S         -0.17181  -0.14918   0.17563   0.08458  -0.01532
  22        2PX        -0.08893   0.08668  -0.15730   0.22351   0.06259
  23        2PY         0.10477  -0.15296  -0.10722  -0.03345   0.24444
  24        2PZ         0.00000   0.00000   0.00000   0.00000   0.00000
  25        3S         -0.10400  -0.13016   0.17161   0.04233  -0.03254
  26        3PX        -0.00769   0.03491  -0.06104   0.06339   0.00904
  27        3PY         0.04217  -0.03334  -0.02041  -0.02228   0.08615
  28        3PZ         0.00000   0.00000   0.00000   0.00000   0.00000
  29        4XX        -0.00603   0.00506   0.00540  -0.00067  -0.00214
  30        4YY         0.00834  -0.00513  -0.00717  -0.01024  -0.00034
  31        4ZZ         0.00774   0.00641  -0.00722  -0.00187   0.00112
  32        4XY         0.00301  -0.00983   0.00414   0.00226  -0.00308
  33        4XZ         0.00000   0.00000   0.00000   0.00000   0.00000
  34        4YZ         0.00000   0.00000   0.00000   0.00000   0.00000
  35 5   H  1S         -0.04415  -0.06205   0.16732  -0.06520  -0.09796
  36        2S         -0.00359  -0.01700   0.09240  -0.05929  -0.07090
  37 6   C  1S         -0.08571   0.07265   0.08565   0.03814   0.00921
  38        2S          0.17181  -0.14918  -0.17563  -0.08458  -0.01530
  39        2PX        -0.08893  -0.08668  -0.15730   0.22350  -0.06264
  40        2PY         0.10477   0.15296  -0.10721  -0.03350  -0.24443
  41        2PZ         0.00000   0.00000   0.00000   0.00000   0.00000
  42        3S          0.10400  -0.13016  -0.17161  -0.04234  -0.03252
  43        3PX        -0.00770  -0.03491  -0.06104   0.06339  -0.00906
  44        3PY         0.04217   0.03334  -0.02041  -0.02230  -0.08614
  45        3PZ         0.00000   0.00000   0.00000   0.00000   0.00000
  46        4XX         0.00603   0.00506  -0.00540   0.00067  -0.00214
  47        4YY        -0.00834  -0.00513   0.00717   0.01024  -0.00034
  48        4ZZ        -0.00774   0.00641   0.00722   0.00188   0.00112
  49        4XY        -0.00301  -0.00983  -0.00414  -0.00226  -0.00308
  50        4XZ         0.00000   0.00000   0.00000   0.00000   0.00000
  51        4YZ         0.00000   0.00000   0.00000   0.00000   0.00000
  52 7   H  1S          0.04415  -0.06205  -0.16732   0.06518  -0.09797
  53        2S          0.00359  -0.01700  -0.09240   0.05928  -0.07091
  54 8   C  1S         -0.13114  -0.11182  -0.04777  -0.01814  -0.00746
  55        2S          0.25363   0.22340   0.09648   0.03871   0.01381
  56        2PX         0.05623  -0.06145  -0.15174  -0.13879  -0.21987
  57        2PY        -0.03062   0.07467  -0.00458   0.26395  -0.14606
  58        2PZ         0.00000   0.00000   0.00000   0.00000   0.00000
  59        3S          0.19915   0.20787   0.09051   0.05301   0.04371
  60        3PX        -0.00577  -0.02565  -0.05336  -0.04146  -0.07752
  61        3PY        -0.00852   0.03463  -0.00262   0.10872  -0.06543
  62        3PZ         0.00000   0.00000   0.00000   0.00000   0.00000
  63        4XX         0.00421   0.00002  -0.00275  -0.00288   0.00452
  64        4YY         0.00235   0.00377   0.00547   0.00964  -0.00112
  65        4ZZ        -0.01356  -0.01030  -0.00434  -0.00120  -0.00088
  66        4XY        -0.00198   0.00794   0.00727   0.00953   0.00531
  67        4XZ         0.00000   0.00000   0.00000   0.00000   0.00000
  68        4YZ         0.00000   0.00000   0.00000   0.00000   0.00000
  69 9   H  1S          0.07258   0.10206   0.11191   0.03203   0.15326
  70        2S          0.01094   0.04191   0.06324   0.02547   0.10572
  71 10  H  1S          0.07763   0.12168   0.03920   0.16623  -0.07788
  72        2S          0.02270   0.04827   0.02058   0.11246  -0.05539
                          11        12        13        14        15
                           O         O         O         O         O
     Eigenvalues --    -0.39136  -0.38493  -0.34434  -0.31981  -0.22902
   1 1   C  1S         -0.02440   0.00565  -0.00396   0.00000   0.00000
   2        2S          0.05231  -0.01082   0.00925   0.00000   0.00000
   3        2PX        -0.20022   0.23881  -0.10131   0.00000   0.00000
   4        2PY         0.23447   0.17202  -0.15616   0.00000   0.00000
   5        2PZ         0.00000   0.00000   0.00000   0.22228   0.33864
   6        3S          0.10741  -0.01394   0.00802   0.00000   0.00000
   7        3PX        -0.09057   0.09331  -0.02197   0.00000   0.00000
   8        3PY         0.08671   0.05338  -0.06077   0.00000   0.00000
   9        3PZ         0.00000   0.00000   0.00000   0.14279   0.27153
  10        4XX         0.00112   0.01617  -0.01740   0.00000   0.00000
  11        4YY        -0.01090  -0.01286   0.01736   0.00000   0.00000
  12        4ZZ        -0.00111   0.00067  -0.00010   0.00000   0.00000
  13        4XY        -0.00792   0.00975  -0.00875   0.00000   0.00000
  14        4XZ         0.00000   0.00000   0.00000  -0.00972  -0.00890
  15        4YZ         0.00000   0.00000   0.00000   0.00785   0.00519
  16 2   H  1S         -0.03652   0.18754  -0.12524   0.00000   0.00000
  17        2S         -0.04449   0.16825  -0.14733   0.00000   0.00000
  18 3   H  1S         -0.12397  -0.13025   0.13038   0.00000   0.00000
  19        2S         -0.12407  -0.12209   0.13121   0.00000   0.00000
  20 4   C  1S         -0.00181  -0.01959  -0.01741   0.00000   0.00000
  21        2S          0.00689   0.03701   0.04226   0.00000   0.00000
  22        2PX         0.26919  -0.16442   0.13991   0.00000   0.00000
  23        2PY        -0.15816   0.01467   0.26809   0.00000   0.00000
  24        2PZ         0.00000   0.00000   0.00000   0.32513   0.23792
  25        3S         -0.05101   0.10411   0.07671   0.00000   0.00000
  26        3PX         0.03037  -0.05440   0.05292   0.00000   0.00000
  27        3PY        -0.02969   0.02451   0.08837   0.00000   0.00000
  28        3PZ         0.00000   0.00000   0.00000   0.20218   0.16311
  29        4XX         0.00006   0.01262  -0.01979   0.00000   0.00000
  30        4YY        -0.00577  -0.00960   0.01307   0.00000   0.00000
  31        4ZZ         0.00065  -0.00195  -0.00030   0.00000   0.00000
  32        4XY        -0.01751   0.00659  -0.01355   0.00000   0.00000
  33        4XZ         0.00000   0.00000   0.00000   0.00645   0.01316
  34        4YZ         0.00000   0.00000   0.00000   0.00569  -0.01676
  35 5   H  1S         -0.11647   0.11566  -0.17208   0.00000   0.00000
  36        2S         -0.12565   0.09353  -0.19621   0.00000   0.00000
  37 6   C  1S         -0.00181   0.01959  -0.01741   0.00000   0.00000
  38        2S          0.00689  -0.03701   0.04225   0.00000   0.00000
  39        2PX        -0.26918  -0.16442  -0.13991   0.00000   0.00000
  40        2PY         0.15816   0.01467  -0.26809   0.00000   0.00000
  41        2PZ         0.00000   0.00000   0.00000   0.32513  -0.23792
  42        3S         -0.05101  -0.10411   0.07671   0.00000   0.00000
  43        3PX        -0.03036  -0.05440  -0.05292   0.00000   0.00000
  44        3PY         0.02968   0.02451  -0.08837   0.00000   0.00000
  45        3PZ         0.00000   0.00000   0.00000   0.20218  -0.16311
  46        4XX         0.00006  -0.01262  -0.01979   0.00000   0.00000
  47        4YY        -0.00577   0.00960   0.01307   0.00000   0.00000
  48        4ZZ         0.00065   0.00195  -0.00030   0.00000   0.00000
  49        4XY        -0.01751  -0.00659  -0.01355   0.00000   0.00000
  50        4XZ         0.00000   0.00000   0.00000  -0.00645   0.01316
  51        4YZ         0.00000   0.00000   0.00000  -0.00569  -0.01676
  52 7   H  1S         -0.11647  -0.11566  -0.17208   0.00000   0.00000
  53        2S         -0.12565  -0.09353  -0.19621   0.00000   0.00000
  54 8   C  1S         -0.02439  -0.00565  -0.00396   0.00000   0.00000
  55        2S          0.05231   0.01082   0.00925   0.00000   0.00000
  56        2PX         0.20021   0.23881   0.10132   0.00000   0.00000
  57        2PY        -0.23448   0.17200   0.15617   0.00000   0.00000
  58        2PZ         0.00000   0.00000   0.00000   0.22228  -0.33864
  59        3S          0.10741   0.01395   0.00802   0.00000   0.00000
  60        3PX         0.09057   0.09331   0.02197   0.00000   0.00000
  61        3PY        -0.08671   0.05338   0.06078   0.00000   0.00000
  62        3PZ         0.00000   0.00000   0.00000   0.14279  -0.27153
  63        4XX         0.00112  -0.01617  -0.01740   0.00000   0.00000
  64        4YY        -0.01090   0.01286   0.01736   0.00000   0.00000
  65        4ZZ        -0.00111  -0.00067  -0.00010   0.00000   0.00000
  66        4XY        -0.00792  -0.00975  -0.00875   0.00000   0.00000
  67        4XZ         0.00000   0.00000   0.00000   0.00972  -0.00890
  68        4YZ         0.00000   0.00000   0.00000  -0.00785   0.00519
  69 9   H  1S         -0.03652  -0.18754  -0.12525   0.00000   0.00000
  70        2S         -0.04449  -0.16824  -0.14733   0.00000   0.00000
  71 10  H  1S         -0.12397   0.13025   0.13038   0.00000   0.00000
  72        2S         -0.12407   0.12208   0.13121   0.00000   0.00000
                          16        17        18        19        20
                           V         V         V         V         V
     Eigenvalues --    -0.02250   0.08547   0.11555   0.12565   0.13073
   1 1   C  1S          0.00000   0.00000   0.01847   0.05307  -0.09609
   2        2S          0.00000   0.00000  -0.02486  -0.07641   0.15582
   3        2PX         0.00000   0.00000  -0.14552  -0.11053   0.07549
   4        2PY         0.00000   0.00000  -0.12768   0.14547  -0.09752
   5        2PZ         0.35307   0.21111   0.00000   0.00000   0.00000
   6        3S          0.00000   0.00000  -0.27607  -0.87918   1.47073
   7        3PX         0.00000   0.00000  -0.34706  -0.40355   0.19365
   8        3PY         0.00000   0.00000  -0.26304   0.34493  -0.38758
   9        3PZ         0.44163   0.45978   0.00000   0.00000   0.00000
  10        4XX         0.00000   0.00000   0.01024  -0.00928  -0.00228
  11        4YY         0.00000   0.00000  -0.01017   0.01392  -0.01126
  12        4ZZ         0.00000   0.00000   0.00264   0.00341  -0.00397
  13        4XY         0.00000   0.00000   0.00505   0.00343  -0.00184
  14        4XZ         0.01066   0.02273   0.00000   0.00000   0.00000
  15        4YZ        -0.00970  -0.00911   0.00000   0.00000   0.00000
  16 2   H  1S          0.00000   0.00000   0.04192  -0.00363  -0.04091
  17        2S          0.00000   0.00000   0.80170   0.53948  -0.74812
  18 3   H  1S          0.00000   0.00000  -0.02412   0.06236  -0.05250
  19        2S          0.00000   0.00000  -0.33900   0.91991  -1.10450
  20 4   C  1S          0.00000   0.00000  -0.03679   0.04216  -0.00648
  21        2S          0.00000   0.00000   0.05028  -0.06261  -0.01431
  22        2PX         0.00000   0.00000  -0.17013   0.15755  -0.06451
  23        2PY         0.00000   0.00000  -0.12321   0.06990   0.00922
  24        2PZ        -0.25181  -0.38874   0.00000   0.00000   0.00000
  25        3S          0.00000   0.00000   0.54137  -0.82786   0.47572
  26        3PX         0.00000   0.00000  -0.36837   0.44822  -0.17896
  27        3PY         0.00000   0.00000  -0.22311   0.26452   0.46052
  28        3PZ        -0.29934  -0.67061   0.00000   0.00000   0.00000
  29        4XX         0.00000   0.00000  -0.01227   0.00830   0.00065
  30        4YY         0.00000   0.00000   0.00999  -0.00284   0.00227
  31        4ZZ         0.00000   0.00000  -0.00457   0.00131  -0.00197
  32        4XY         0.00000   0.00000  -0.01465  -0.00585  -0.01980
  33        4XZ         0.01357   0.01681   0.00000   0.00000   0.00000
  34        4YZ        -0.02211   0.01458   0.00000   0.00000   0.00000
  35 5   H  1S          0.00000   0.00000  -0.07978  -0.00029  -0.03960
  36        2S          0.00000   0.00000  -1.03304   0.88671  -0.22021
  37 6   C  1S          0.00000   0.00000   0.03680   0.04216   0.00648
  38        2S          0.00000   0.00000  -0.05029  -0.06260   0.01431
  39        2PX         0.00000   0.00000  -0.17016  -0.15752  -0.06451
  40        2PY         0.00000   0.00000  -0.12322  -0.06988   0.00923
  41        2PZ        -0.25181   0.38874   0.00000   0.00000   0.00000
  42        3S          0.00000   0.00000  -0.54151  -0.82775  -0.47571
  43        3PX         0.00000   0.00000  -0.36846  -0.44816  -0.17894
  44        3PY         0.00000   0.00000  -0.22315  -0.26445   0.46053
  45        3PZ        -0.29934   0.67061   0.00000   0.00000   0.00000
  46        4XX         0.00000   0.00000   0.01227   0.00830  -0.00065
  47        4YY         0.00000   0.00000  -0.00999  -0.00284  -0.00227
  48        4ZZ         0.00000   0.00000   0.00457   0.00130   0.00197
  49        4XY         0.00000   0.00000   0.01465  -0.00586   0.01980
  50        4XZ        -0.01357   0.01681   0.00000   0.00000   0.00000
  51        4YZ         0.02211   0.01458   0.00000   0.00000   0.00000
  52 7   H  1S          0.00000   0.00000   0.07978  -0.00031   0.03960
  53        2S          0.00000   0.00000   1.03319   0.88649   0.22019
  54 8   C  1S          0.00000   0.00000  -0.01846   0.05307   0.09609
  55        2S          0.00000   0.00000   0.02485  -0.07641  -0.15582
  56        2PX         0.00000   0.00000  -0.14550   0.11056   0.07549
  57        2PY         0.00000   0.00000  -0.12770  -0.14545  -0.09752
  58        2PZ         0.35307  -0.21111   0.00000   0.00000   0.00000
  59        3S          0.00000   0.00000   0.27589  -0.87925  -1.47073
  60        3PX         0.00000   0.00000  -0.34699   0.40359   0.19365
  61        3PY         0.00000   0.00000  -0.26307  -0.34491  -0.38758
  62        3PZ         0.44163  -0.45979   0.00000   0.00000   0.00000
  63        4XX         0.00000   0.00000  -0.01025  -0.00928   0.00228
  64        4YY         0.00000   0.00000   0.01017   0.01392   0.01126
  65        4ZZ         0.00000   0.00000  -0.00264   0.00341   0.00397
  66        4XY         0.00000   0.00000  -0.00505   0.00343   0.00184
  67        4XZ        -0.01066   0.02273   0.00000   0.00000   0.00000
  68        4YZ         0.00970  -0.00911   0.00000   0.00000   0.00000
  69 9   H  1S          0.00000   0.00000  -0.04192  -0.00363   0.04091
  70        2S          0.00000   0.00000  -0.80158   0.53963   0.74814
  71 10  H  1S          0.00000   0.00000   0.02413   0.06235   0.05250
  72        2S          0.00000   0.00000   0.33916   0.91986   1.10449
                          21        22        23        24        25
                           V         V         V         V         V
     Eigenvalues --     0.17487   0.19251   0.21195   0.32519   0.33674
   1 1   C  1S          0.06949  -0.01660   0.04284   0.05883  -0.04061
   2        2S         -0.09477   0.02614  -0.05182  -0.02819  -0.05606
   3        2PX        -0.17664  -0.11204   0.10927  -0.06604  -0.05394
   4        2PY        -0.10740  -0.15813   0.23306  -0.10775  -0.03776
   5        2PZ         0.00000   0.00000   0.00000   0.00000   0.00000
   6        3S         -1.18813   0.12622  -0.75866  -1.26851   2.70612
   7        3PX        -0.34978  -0.48831   0.70267   0.58669  -1.76319
   8        3PY        -0.47939  -0.60621   0.77297  -1.57726   1.41064
   9        3PZ         0.00000   0.00000   0.00000   0.00000   0.00000
  10        4XX         0.01713   0.00773   0.01155  -0.00957  -0.00890
  11        4YY        -0.00951  -0.00825  -0.00782   0.01311   0.02532
  12        4ZZ         0.00442  -0.00300   0.00264   0.00663  -0.01309
  13        4XY         0.00158   0.01229  -0.00137  -0.03636   0.01648
  14        4XZ         0.00000   0.00000   0.00000   0.00000   0.00000
  15        4YZ         0.00000   0.00000   0.00000   0.00000   0.00000
  16 2   H  1S          0.08514   0.05172   0.02997  -0.09342   0.03596
  17        2S          1.32819   0.75502  -0.66206   0.62522   0.24995
  18 3   H  1S         -0.01646  -0.05945   0.00252   0.02677   0.10587
  19        2S         -0.09666  -0.92032   1.31112  -0.83898   0.33410
  20 4   C  1S         -0.04825   0.09335  -0.04202  -0.09869   0.04420
  21        2S          0.07886  -0.15724   0.04181   0.07301  -0.03739
  22        2PX        -0.05369   0.11111  -0.08337   0.23463  -0.20894
  23        2PY        -0.07119  -0.11022  -0.14188   0.10002  -0.00797
  24        2PZ         0.00000   0.00000   0.00000   0.00000   0.00000
  25        3S          0.76637  -1.31130   1.14925   3.18227  -2.26262
  26        3PX         0.02986   0.44673  -0.48616   1.01978  -2.70098
  27        3PY        -0.19590  -0.14973  -0.61611   1.29589   0.89560
  28        3PZ         0.00000   0.00000   0.00000   0.00000   0.00000
  29        4XX        -0.01992  -0.01463   0.01026   0.00633   0.00430
  30        4YY         0.01213   0.03148  -0.00910  -0.00438  -0.01163
  31        4ZZ        -0.00119  -0.00065  -0.00451  -0.00679   0.00523
  32        4XY        -0.00127  -0.00007   0.00778   0.00343   0.01457
  33        4XZ         0.00000   0.00000   0.00000   0.00000   0.00000
  34        4YZ         0.00000   0.00000   0.00000   0.00000   0.00000
  35 5   H  1S         -0.07652   0.02490   0.01091   0.01479  -0.00002
  36        2S         -0.61762   0.96610  -1.06177   0.54150  -1.24096
  37 6   C  1S         -0.04824  -0.09335  -0.04202   0.09868   0.04421
  38        2S          0.07885   0.15725   0.04183  -0.07301  -0.03739
  39        2PX         0.05368   0.11111   0.08338   0.23462   0.20896
  40        2PY         0.07121  -0.11023   0.14187   0.10001   0.00798
  41        2PZ         0.00000   0.00000   0.00000   0.00000   0.00000
  42        3S          0.76626   1.31134   1.14937  -3.18219  -2.26269
  43        3PX        -0.02990   0.44666   0.48620   1.01966   2.70100
  44        3PY         0.19588  -0.14975   0.61606   1.29590  -0.89560
  45        3PZ         0.00000   0.00000   0.00000   0.00000   0.00000
  46        4XX        -0.01993   0.01463   0.01027  -0.00633   0.00430
  47        4YY         0.01213  -0.03148  -0.00911   0.00438  -0.01163
  48        4ZZ        -0.00119   0.00065  -0.00451   0.00679   0.00523
  49        4XY        -0.00127   0.00007   0.00778  -0.00343   0.01457
  50        4XZ         0.00000   0.00000   0.00000   0.00000   0.00000
  51        4YZ         0.00000   0.00000   0.00000   0.00000   0.00000
  52 7   H  1S         -0.07652  -0.02491   0.01091  -0.01479  -0.00002
  53        2S         -0.61752  -0.96609  -1.06183  -0.54144  -1.24100
  54 8   C  1S          0.06949   0.01660   0.04284  -0.05883  -0.04061
  55        2S         -0.09477  -0.02615  -0.05182   0.02820  -0.05606
  56        2PX         0.17666  -0.11201  -0.10929  -0.06604   0.05393
  57        2PY         0.10741  -0.15809  -0.23308  -0.10775   0.03776
  58        2PZ         0.00000   0.00000   0.00000   0.00000   0.00000
  59        3S         -1.18809  -0.12632  -0.75866   1.26839   2.70619
  60        3PX         0.34986  -0.48825  -0.70273   0.58659   1.76316
  61        3PY         0.47947  -0.60605  -0.77300  -1.57721  -1.41075
  62        3PZ         0.00000   0.00000   0.00000   0.00000   0.00000
  63        4XX         0.01713  -0.00773   0.01155   0.00957  -0.00890
  64        4YY        -0.00951   0.00825  -0.00782  -0.01312   0.02531
  65        4ZZ         0.00442   0.00300   0.00264  -0.00662  -0.01309
  66        4XY         0.00158  -0.01229  -0.00137   0.03636   0.01648
  67        4XZ         0.00000   0.00000   0.00000   0.00000   0.00000
  68        4YZ         0.00000   0.00000   0.00000   0.00000   0.00000
  69 9   H  1S          0.08514  -0.05171   0.02997   0.09342   0.03595
  70        2S          1.32829  -0.75481  -0.66214  -0.62520   0.24990
  71 10  H  1S         -0.01646   0.05944   0.00252  -0.02677   0.10587
  72        2S         -0.09680   0.92018   1.31120   0.83895   0.33413
                          26        27        28        29        30
                           V         V         V         V         V
     Eigenvalues --     0.39728   0.47197   0.51674   0.53025   0.57791
   1 1   C  1S         -0.03572   0.00142  -0.01158   0.00000   0.00000
   2        2S          0.09260   0.20635  -0.04260   0.00000   0.00000
   3        2PX        -0.21508  -0.24709   0.32317   0.00000   0.00000
   4        2PY         0.11947   0.35653   0.06813   0.00000   0.00000
   5        2PZ         0.00000   0.00000   0.00000   0.51087  -0.75472
   6        3S          1.32748  -0.31692  -0.48157   0.00000   0.00000
   7        3PX        -1.75307   0.63507  -0.58032   0.00000   0.00000
   8        3PY         0.13513  -0.47024  -0.08673   0.00000   0.00000
   9        3PZ         0.00000   0.00000   0.00000  -0.44968   0.81729
  10        4XX        -0.01720   0.05731   0.02179   0.00000   0.00000
  11        4YY         0.01303  -0.04594  -0.04379   0.00000   0.00000
  12        4ZZ         0.00520   0.00905   0.00479   0.00000   0.00000
  13        4XY         0.01083  -0.00017   0.05658   0.00000   0.00000
  14        4XZ         0.00000   0.00000   0.00000  -0.03147   0.01375
  15        4YZ         0.00000   0.00000   0.00000   0.01679  -0.00881
  16 2   H  1S          0.04674   0.09165   0.26591   0.00000   0.00000
  17        2S          1.06686  -0.23861   0.12836   0.00000   0.00000
  18 3   H  1S          0.08726  -0.18628  -0.17010   0.00000   0.00000
  19        2S         -0.08223   0.18057   0.11251   0.00000   0.00000
  20 4   C  1S          0.00102   0.04641  -0.00288   0.00000   0.00000
  21        2S         -0.00786  -0.07577  -0.02653   0.00000   0.00000
  22        2PX        -0.02121   0.16629  -0.11730   0.00000   0.00000
  23        2PY         0.28030  -0.35518   0.37107   0.00000   0.00000
  24        2PZ         0.00000   0.00000   0.00000   0.52213  -0.06417
  25        3S          0.01656   0.48263   0.15008   0.00000   0.00000
  26        3PX        -0.66973  -0.18409   0.53485   0.00000   0.00000
  27        3PY         2.76715   0.08280  -0.60171   0.00000   0.00000
  28        3PZ         0.00000   0.00000   0.00000  -0.38467  -0.06757
  29        4XX         0.01657   0.00271  -0.05311   0.00000   0.00000
  30        4YY        -0.01498   0.06024   0.05555   0.00000   0.00000
  31        4ZZ         0.00017  -0.02848   0.00494   0.00000   0.00000
  32        4XY        -0.04264  -0.07196   0.00819   0.00000   0.00000
  33        4XZ         0.00000   0.00000   0.00000   0.03481  -0.02785
  34        4YZ         0.00000   0.00000   0.00000   0.00043   0.01660
  35 5   H  1S         -0.04500  -0.14944  -0.15122   0.00000   0.00000
  36        2S          0.60206  -0.02687   0.19121   0.00000   0.00000
  37 6   C  1S         -0.00102  -0.04641  -0.00288   0.00000   0.00000
  38        2S          0.00786   0.07575  -0.02652   0.00000   0.00000
  39        2PX        -0.02121   0.16628   0.11729   0.00000   0.00000
  40        2PY         0.28031  -0.35516  -0.37108   0.00000   0.00000
  41        2PZ         0.00000   0.00000   0.00000   0.52213   0.06417
  42        3S         -0.01644  -0.48256   0.15002   0.00000   0.00000
  43        3PX        -0.66977  -0.18412  -0.53485   0.00000   0.00000
  44        3PY         2.76720   0.08280   0.60178   0.00000   0.00000
  45        3PZ         0.00000   0.00000   0.00000  -0.38467   0.06756
  46        4XX        -0.01657  -0.00271  -0.05312   0.00000   0.00000
  47        4YY         0.01498  -0.06024   0.05555   0.00000   0.00000
  48        4ZZ        -0.00017   0.02848   0.00494   0.00000   0.00000
  49        4XY         0.04263   0.07196   0.00820   0.00000   0.00000
  50        4XZ         0.00000   0.00000   0.00000  -0.03481  -0.02785
  51        4YZ         0.00000   0.00000   0.00000  -0.00043   0.01660
  52 7   H  1S          0.04500   0.14944  -0.15122   0.00000   0.00000
  53        2S         -0.60206   0.02688   0.19121   0.00000   0.00000
  54 8   C  1S          0.03572  -0.00141  -0.01158   0.00000   0.00000
  55        2S         -0.09260  -0.20636  -0.04260   0.00000   0.00000
  56        2PX        -0.21507  -0.24708  -0.32319   0.00000   0.00000
  57        2PY         0.11947   0.35654  -0.06810   0.00000   0.00000
  58        2PZ         0.00000   0.00000   0.00000   0.51087   0.75472
  59        3S         -1.32759   0.31691  -0.48158   0.00000   0.00000
  60        3PX        -1.75315   0.63501   0.58032   0.00000   0.00000
  61        3PY         0.13520  -0.47024   0.08669   0.00000   0.00000
  62        3PZ         0.00000   0.00000   0.00000  -0.44968  -0.81729
  63        4XX         0.01720  -0.05731   0.02179   0.00000   0.00000
  64        4YY        -0.01303   0.04594  -0.04379   0.00000   0.00000
  65        4ZZ        -0.00520  -0.00905   0.00479   0.00000   0.00000
  66        4XY        -0.01083   0.00017   0.05658   0.00000   0.00000
  67        4XZ         0.00000   0.00000   0.00000   0.03147   0.01375
  68        4YZ         0.00000   0.00000   0.00000  -0.01679  -0.00881
  69 9   H  1S         -0.04674  -0.09167   0.26591   0.00000   0.00000
  70        2S         -1.06688   0.23860   0.12836   0.00000   0.00000
  71 10  H  1S         -0.08726   0.18628  -0.17009   0.00000   0.00000
  72        2S          0.08224  -0.18059   0.11250   0.00000   0.00000
                          31        32        33        34        35
                           V         V         V         V         V
     Eigenvalues --     0.60789   0.62698   0.66255   0.67113   0.67143
   1 1   C  1S         -0.00184   0.00365   0.00000  -0.05988   0.00000
   2        2S         -0.45868   0.27836   0.00000  -0.26045   0.00000
   3        2PX         0.17032  -0.22863   0.00000  -0.31903   0.00000
   4        2PY        -0.15531  -0.10039   0.00000   0.14166   0.00000
   5        2PZ         0.00000   0.00000   0.11105   0.00000  -0.55435
   6        3S          0.12759  -0.16944   0.00000   0.68989   0.00000
   7        3PX         0.25684   0.21018   0.00000   0.61231   0.00000
   8        3PY        -0.09737   0.55092   0.00000  -0.21798   0.00000
   9        3PZ         0.00000   0.00000  -0.44249   0.00000   0.84164
  10        4XX        -0.04723   0.00470   0.00000  -0.12821   0.00000
  11        4YY        -0.05592   0.07475   0.00000  -0.06968   0.00000
  12        4ZZ         0.02203  -0.02018   0.00000   0.06938   0.00000
  13        4XY        -0.02041   0.00123   0.00000   0.00994   0.00000
  14        4XZ         0.00000   0.00000   0.01164   0.00000  -0.00392
  15        4YZ         0.00000   0.00000  -0.03902   0.00000  -0.00939
  16 2   H  1S         -0.20801  -0.04705   0.00000  -0.45887   0.00000
  17        2S         -0.12359  -0.13703   0.00000  -0.15572   0.00000
  18 3   H  1S         -0.15284   0.30709   0.00000  -0.26916   0.00000
  19        2S         -0.06846   0.23382   0.00000  -0.13695   0.00000
  20 4   C  1S         -0.03835   0.05813   0.00000   0.03923   0.00000
  21        2S         -0.67548   0.08095   0.00000  -0.29676   0.00000
  22        2PX        -0.03849  -0.07425   0.00000  -0.33730   0.00000
  23        2PY        -0.20738  -0.38551   0.00000   0.12693   0.00000
  24        2PZ         0.00000   0.00000  -0.75938   0.00000   0.54347
  25        3S          1.21240  -0.49626   0.00000   0.28600   0.00000
  26        3PX         0.43287   0.02087   0.00000   0.35304   0.00000
  27        3PY        -0.09119   0.44743   0.00000  -0.10280   0.00000
  28        3PZ         0.00000   0.00000   1.38351   0.00000  -0.71628
  29        4XX        -0.10481   0.06318   0.00000   0.03690   0.00000
  30        4YY        -0.10851   0.07021   0.00000  -0.00633   0.00000
  31        4ZZ         0.04772  -0.05532   0.00000  -0.02617   0.00000
  32        4XY        -0.00246   0.04078   0.00000  -0.05132   0.00000
  33        4XZ         0.00000   0.00000  -0.03437   0.00000  -0.01985
  34        4YZ         0.00000   0.00000  -0.00031   0.00000   0.04128
  35 5   H  1S         -0.29059   0.45726   0.00000   0.12359   0.00000
  36        2S          0.04566  -0.00082   0.00000   0.09229   0.00000
  37 6   C  1S         -0.03834  -0.05813   0.00000  -0.03922   0.00000
  38        2S         -0.67548  -0.08106   0.00000   0.29673   0.00000
  39        2PX         0.03851  -0.07426   0.00000  -0.33729   0.00000
  40        2PY         0.20744  -0.38547   0.00000   0.12693   0.00000
  41        2PZ         0.00000   0.00000   0.75929   0.00000   0.54359
  42        3S          1.21233   0.49643   0.00000  -0.28597   0.00000
  43        3PX        -0.43287   0.02084   0.00000   0.35307   0.00000
  44        3PY         0.09113   0.44744   0.00000  -0.10281   0.00000
  45        3PZ         0.00000   0.00000  -1.38340   0.00000  -0.71650
  46        4XX        -0.10480  -0.06319   0.00000  -0.03690   0.00000
  47        4YY        -0.10850  -0.07023   0.00000   0.00633   0.00000
  48        4ZZ         0.04771   0.05533   0.00000   0.02617   0.00000
  49        4XY        -0.00245  -0.04077   0.00000   0.05132   0.00000
  50        4XZ         0.00000   0.00000  -0.03438   0.00000   0.01985
  51        4YZ         0.00000   0.00000  -0.00031   0.00000  -0.04128
  52 7   H  1S         -0.29052  -0.45730   0.00000  -0.12359   0.00000
  53        2S          0.04565   0.00080   0.00000  -0.09232   0.00000
  54 8   C  1S         -0.00185  -0.00365   0.00000   0.05987   0.00000
  55        2S         -0.45864  -0.27843   0.00000   0.26043   0.00000
  56        2PX        -0.17026  -0.22867   0.00000  -0.31900   0.00000
  57        2PY         0.15531  -0.10036   0.00000   0.14166   0.00000
  58        2PZ         0.00000   0.00000  -0.11096   0.00000  -0.55437
  59        3S          0.12759   0.16946   0.00000  -0.68982   0.00000
  60        3PX        -0.25690   0.21019   0.00000   0.61228   0.00000
  61        3PY         0.09731   0.55091   0.00000  -0.21799   0.00000
  62        3PZ         0.00000   0.00000   0.44236   0.00000   0.84171
  63        4XX        -0.04723  -0.00470   0.00000   0.12820   0.00000
  64        4YY        -0.05591  -0.07476   0.00000   0.06967   0.00000
  65        4ZZ         0.02203   0.02018   0.00000  -0.06938   0.00000
  66        4XY        -0.02041  -0.00124   0.00000  -0.00994   0.00000
  67        4XZ         0.00000   0.00000   0.01164   0.00000   0.00393
  68        4YZ         0.00000   0.00000  -0.03902   0.00000   0.00938
  69 9   H  1S         -0.20802   0.04703   0.00000   0.45885   0.00000
  70        2S         -0.12362   0.13702   0.00000   0.15570   0.00000
  71 10  H  1S         -0.15281  -0.30710   0.00000   0.26914   0.00000
  72        2S         -0.06842  -0.23383   0.00000   0.13695   0.00000
                          36        37        38        39        40
                           V         V         V         V         V
     Eigenvalues --     0.69332   0.84373   0.85784   0.86383   0.88847
   1 1   C  1S         -0.07071  -0.00672   0.00599  -0.00586   0.01637
   2        2S         -0.14915   0.11106  -0.10111   0.37098  -0.31672
   3        2PX        -0.39570   0.38242  -0.49984  -0.15193   0.10163
   4        2PY         0.23777   0.52505  -0.56640  -0.30166   0.24832
   5        2PZ         0.00000   0.00000   0.00000   0.00000   0.00000
   6        3S          0.93302  -0.75015   0.21548  -1.51763   0.37462
   7        3PX         0.38302  -0.88968   1.13755   0.57793  -0.52415
   8        3PY        -0.16988  -1.56482   1.44830   0.25418  -1.06741
   9        3PZ         0.00000   0.00000   0.00000   0.00000   0.00000
  10        4XX        -0.09364  -0.06138   0.05547   0.08323  -0.01986
  11        4YY        -0.09433   0.04704  -0.05640  -0.06847  -0.00602
  12        4ZZ         0.06932   0.02370  -0.01247   0.02837  -0.02967
  13        4XY         0.03145  -0.01620   0.03553   0.04096   0.03665
  14        4XZ         0.00000   0.00000   0.00000   0.00000   0.00000
  15        4YZ         0.00000   0.00000   0.00000   0.00000   0.00000
  16 2   H  1S         -0.29927  -0.32245   0.33270   0.12592   0.05417
  17        2S         -0.13346   1.24800  -1.34947  -0.41899   0.38028
  18 3   H  1S         -0.38078   0.25963  -0.19449  -0.22591   0.28057
  19        2S         -0.02490  -1.07426   1.05701   0.74798  -0.89997
  20 4   C  1S          0.05017  -0.01271  -0.01543  -0.00903  -0.02611
  21        2S         -0.10993   0.18743   0.22836   0.40129   0.16597
  22        2PX        -0.31444  -0.42088  -0.10499  -0.54344  -0.53702
  23        2PY         0.30754  -0.22054   0.09004  -0.24178  -0.42541
  24        2PZ         0.00000   0.00000   0.00000   0.00000   0.00000
  25        3S         -0.06732  -0.61078  -0.91469  -0.50800   0.67996
  26        3PX        -0.08096   1.77653  -0.15975   1.93694   1.25769
  27        3PY        -0.15962   0.74939  -0.78162   0.18411   1.92626
  28        3PZ         0.00000   0.00000   0.00000   0.00000   0.00000
  29        4XX         0.06876   0.05540  -0.05507  -0.03266  -0.04625
  30        4YY         0.03145  -0.04596   0.02145   0.06069   0.05400
  31        4ZZ        -0.04907   0.02397   0.04638   0.03953   0.04347
  32        4XY        -0.03889   0.02206  -0.06131  -0.05682  -0.07067
  33        4XZ         0.00000   0.00000   0.00000   0.00000   0.00000
  34        4YZ         0.00000   0.00000   0.00000   0.00000   0.00000
  35 5   H  1S          0.11990  -0.04673  -0.25420  -0.39043  -0.42967
  36        2S         -0.17376   1.10841   0.27899   1.58168   1.59818
  37 6   C  1S          0.05017  -0.01271   0.01543  -0.00903   0.02611
  38        2S         -0.10995   0.18743  -0.22838   0.40129  -0.16601
  39        2PX         0.31446   0.42087  -0.10498   0.54340  -0.53706
  40        2PY        -0.30755   0.22053   0.09005   0.24171  -0.42542
  41        2PZ         0.00000   0.00000   0.00000   0.00000   0.00000
  42        3S         -0.06726  -0.61086   0.91469  -0.50813  -0.67991
  43        3PX         0.08093  -1.77648  -0.15983  -1.93688   1.25782
  44        3PY         0.15959  -0.74931  -0.78165  -0.18384   1.92624
  45        3PZ         0.00000   0.00000   0.00000   0.00000   0.00000
  46        4XX         0.06876   0.05539   0.05507  -0.03265   0.04626
  47        4YY         0.03145  -0.04596  -0.02146   0.06069  -0.05400
  48        4ZZ        -0.04907   0.02398  -0.04637   0.03952  -0.04347
  49        4XY        -0.03890   0.02206   0.06131  -0.05682   0.07068
  50        4XZ         0.00000   0.00000   0.00000   0.00000   0.00000
  51        4YZ         0.00000   0.00000   0.00000   0.00000   0.00000
  52 7   H  1S          0.11989  -0.04674   0.25419  -0.39040   0.42970
  53        2S         -0.17374   1.10838  -0.27894   1.58157  -1.59828
  54 8   C  1S         -0.07071  -0.00672  -0.00599  -0.00586  -0.01637
  55        2S         -0.14918   0.11104   0.10111   0.37101   0.31667
  56        2PX         0.39570  -0.38242  -0.49987   0.15195   0.10165
  57        2PY        -0.23780  -0.52501  -0.56642   0.30165   0.24829
  58        2PZ         0.00000   0.00000   0.00000   0.00000   0.00000
  59        3S          0.93307  -0.75009  -0.21552  -1.51770  -0.37447
  60        3PX        -0.38301   0.88970   1.13763  -0.57800  -0.52417
  61        3PY         0.16994   1.56471   1.44834  -0.25419  -1.06736
  62        3PZ         0.00000   0.00000   0.00000   0.00000   0.00000
  63        4XX        -0.09365  -0.06138  -0.05547   0.08323   0.01985
  64        4YY        -0.09433   0.04704   0.05640  -0.06847   0.00602
  65        4ZZ         0.06932   0.02370   0.01247   0.02837   0.02967
  66        4XY         0.03145  -0.01620  -0.03553   0.04095  -0.03665
  67        4XZ         0.00000   0.00000   0.00000   0.00000   0.00000
  68        4YZ         0.00000   0.00000   0.00000   0.00000   0.00000
  69 9   H  1S         -0.29930  -0.32244  -0.33269   0.12592  -0.05416
  70        2S         -0.13344   1.24795   1.34952  -0.41901  -0.38028
  71 10  H  1S         -0.38080   0.25962   0.19451  -0.22591  -0.28055
  72        2S         -0.02494  -1.07422  -1.05707   0.74800   0.89989
                          41        42        43        44        45
                           V         V         V         V         V
     Eigenvalues --     0.93869   0.94507   0.96240   1.06599   1.11827
   1 1   C  1S         -0.01890  -0.02363  -0.00375  -0.01085  -0.01401
   2        2S          0.42922   0.07773  -1.01575  -1.13582  -0.38159
   3        2PX         0.43353   0.37080  -0.09929   0.08061   0.05596
   4        2PY        -0.31628  -0.37291  -0.00351  -0.19926   0.36421
   5        2PZ         0.00000   0.00000   0.00000   0.00000   0.00000
   6        3S         -0.30542   0.65199   2.64620   2.86407   4.26013
   7        3PX        -0.89970  -1.53399  -0.40137  -0.24210  -1.87309
   8        3PY         0.81360   0.65214   0.21295   0.86832  -0.65618
   9        3PZ         0.00000   0.00000   0.00000   0.00000   0.00000
  10        4XX         0.01566   0.03319  -0.04017  -0.07613   0.13465
  11        4YY        -0.02042  -0.10157  -0.07213  -0.04855  -0.11411
  12        4ZZ         0.07322   0.08611  -0.02774  -0.03111  -0.05269
  13        4XY        -0.11139  -0.08925   0.02126  -0.03457  -0.05359
  14        4XZ         0.00000   0.00000   0.00000   0.00000   0.00000
  15        4YZ         0.00000   0.00000   0.00000   0.00000   0.00000
  16 2   H  1S         -0.49552  -0.31616   0.25452  -0.08719   0.20230
  17        2S          0.89718   0.95085  -0.56372  -0.67386   0.19991
  18 3   H  1S         -0.42809  -0.39639   0.17573   0.12851  -0.39474
  19        2S          0.94519   0.83091  -0.45043  -0.20690  -0.79479
  20 4   C  1S          0.00628  -0.02345  -0.01363   0.01200   0.01914
  21        2S          0.33442  -0.19616  -0.70062   0.85260   0.43093
  22        2PX         0.25463   0.10466   0.28376   0.00670   0.30893
  23        2PY        -0.00942  -0.50027  -0.21827  -0.02249  -0.31003
  24        2PZ         0.00000   0.00000   0.00000   0.00000   0.00000
  25        3S         -0.93094   1.04333   1.75581  -2.32342  -3.22549
  26        3PX        -1.02167  -0.51834  -0.87739  -0.20702  -3.06677
  27        3PY         0.11407   3.00196   1.70031   0.20056   2.06955
  28        3PZ         0.00000   0.00000   0.00000   0.00000   0.00000
  29        4XX         0.01763  -0.10781  -0.08801   0.00760  -0.00356
  30        4YY         0.03338   0.03909  -0.00175   0.12950  -0.00175
  31        4ZZ        -0.01168   0.02828  -0.00444  -0.00809   0.00933
  32        4XY         0.04170   0.03843   0.08683   0.06354  -0.03637
  33        4XZ         0.00000   0.00000   0.00000   0.00000   0.00000
  34        4YZ         0.00000   0.00000   0.00000   0.00000   0.00000
  35 5   H  1S          0.15004  -0.10524   0.15684   0.05665  -0.23462
  36        2S         -0.59402   0.52359  -0.58956   0.38673  -0.30794
  37 6   C  1S          0.00628   0.02345   0.01363   0.01200   0.01914
  38        2S          0.33441   0.19619   0.70061   0.85256   0.43099
  39        2PX        -0.25465   0.10460   0.28377  -0.00671  -0.30891
  40        2PY         0.00947  -0.50028  -0.21827   0.02249   0.31005
  41        2PZ         0.00000   0.00000   0.00000   0.00000   0.00000
  42        3S         -0.93085  -1.04347  -1.75580  -2.32334  -3.22550
  43        3PX         1.02173  -0.51807  -0.87739   0.20701   3.06672
  44        3PY        -0.11434   3.00194   1.70030  -0.20037  -2.07026
  45        3PZ         0.00000   0.00000   0.00000   0.00000   0.00000
  46        4XX         0.01763   0.10782   0.08801   0.00760  -0.00356
  47        4YY         0.03338  -0.03909   0.00175   0.12950  -0.00174
  48        4ZZ        -0.01168  -0.02829   0.00444  -0.00809   0.00933
  49        4XY         0.04170  -0.03843  -0.08683   0.06354  -0.03636
  50        4XZ         0.00000   0.00000   0.00000   0.00000   0.00000
  51        4YZ         0.00000   0.00000   0.00000   0.00000   0.00000
  52 7   H  1S          0.15004   0.10528  -0.15685   0.05662  -0.23455
  53        2S         -0.59400  -0.52375   0.58960   0.38668  -0.30779
  54 8   C  1S         -0.01891   0.02363   0.00375  -0.01085  -0.01401
  55        2S          0.42931  -0.07768   1.01572  -1.13579  -0.38167
  56        2PX        -0.43359   0.37072  -0.09927  -0.08061  -0.05599
  57        2PY         0.31634  -0.37290  -0.00355   0.19926  -0.36422
  58        2PZ         0.00000   0.00000   0.00000   0.00000   0.00000
  59        3S         -0.30553  -0.65195  -2.64612   2.86390   4.26055
  60        3PX         0.89986  -1.53379  -0.40138   0.24196   1.87350
  61        3PY        -0.81370   0.65209   0.21305  -0.86835   0.65628
  62        3PZ         0.00000   0.00000   0.00000   0.00000   0.00000
  63        4XX         0.01566  -0.03318   0.04017  -0.07613   0.13466
  64        4YY        -0.02042   0.10156   0.07214  -0.04853  -0.11414
  65        4ZZ         0.07323  -0.08610   0.02774  -0.03112  -0.05269
  66        4XY        -0.11141   0.08923  -0.02126  -0.03457  -0.05360
  67        4XZ         0.00000   0.00000   0.00000   0.00000   0.00000
  68        4YZ         0.00000   0.00000   0.00000   0.00000   0.00000
  69 9   H  1S         -0.49558   0.31609  -0.25450  -0.08721   0.20236
  70        2S          0.89735  -0.95069   0.56369  -0.67388   0.20004
  71 10  H  1S         -0.42816   0.39633  -0.17571   0.12855  -0.39482
  72        2S          0.94534  -0.83081   0.45033  -0.20690  -0.79486
                          46        47        48        49        50
                           V         V         V         V         V
     Eigenvalues --     1.13050   1.31993   1.34567   1.35377   1.42918
   1 1   C  1S         -0.02015   0.00574   0.00000  -0.02973   0.00000
   2        2S         -0.46712  -0.14199   0.00000  -0.78772   0.00000
   3        2PX         0.08006   0.10322   0.00000   0.01695   0.00000
   4        2PY         0.08034  -0.15044   0.00000  -0.08809   0.00000
   5        2PZ         0.00000   0.00000   0.11300   0.00000  -0.09233
   6        3S          2.09908  -1.45768   0.00000   3.55701   0.00000
   7        3PX        -1.57710  -0.56150   0.00000   0.00727   0.00000
   8        3PY        -0.94694  -1.47881   0.00000   2.36678   0.00000
   9        3PZ         0.00000   0.00000  -0.01249   0.00000  -0.02434
  10        4XX         0.06442   0.00646   0.00000  -0.06454   0.00000
  11        4YY        -0.11829  -0.06764   0.00000   0.01783   0.00000
  12        4ZZ        -0.00760   0.05526   0.00000  -0.02729   0.00000
  13        4XY         0.00960   0.04369   0.00000  -0.14703   0.00000
  14        4XZ         0.00000   0.00000   0.31630   0.00000  -0.24243
  15        4YZ         0.00000   0.00000  -0.04512   0.00000   0.31303
  16 2   H  1S          0.31775   0.43169   0.00000  -0.44289   0.00000
  17        2S          0.40787   0.46494   0.00000  -0.77697   0.00000
  18 3   H  1S         -0.46843  -0.32743   0.00000   0.27150   0.00000
  19        2S         -0.56572  -0.34588   0.00000   0.36054   0.00000
  20 4   C  1S          0.02226  -0.00273   0.00000   0.06148   0.00000
  21        2S          0.81385  -0.23082   0.00000   1.20712   0.00000
  22        2PX        -0.09831  -0.16260   0.00000   0.35535   0.00000
  23        2PY        -0.02208  -0.25987   0.00000  -0.01196   0.00000
  24        2PZ         0.00000   0.00000  -0.01329   0.00000  -0.13403
  25        3S         -1.97476  -0.14222   0.00000  -6.89176   0.00000
  26        3PX         0.30193   3.32970   0.00000  -2.18571   0.00000
  27        3PY         1.94226   1.00367   0.00000  -2.55560   0.00000
  28        3PZ         0.00000   0.00000  -0.02649   0.00000   0.08179
  29        4XX         0.09515   0.07973   0.00000   0.03974   0.00000
  30        4YY         0.04437  -0.10523   0.00000  -0.01721   0.00000
  31        4ZZ        -0.02845   0.04278   0.00000  -0.00083   0.00000
  32        4XY         0.09928   0.05806   0.00000  -0.02774   0.00000
  33        4XZ         0.00000   0.00000  -0.06860   0.00000   0.48261
  34        4YZ         0.00000   0.00000   0.51198   0.00000  -0.03282
  35 5   H  1S          0.41262   0.77907   0.00000  -0.14466   0.00000
  36        2S          0.68278   1.31157   0.00000  -0.48593   0.00000
  37 6   C  1S         -0.02226  -0.00273   0.00000  -0.06148   0.00000
  38        2S         -0.81385  -0.23074   0.00000  -1.20714   0.00000
  39        2PX        -0.09837   0.16259   0.00000   0.35538   0.00000
  40        2PY        -0.02202   0.25987   0.00000  -0.01196   0.00000
  41        2PZ         0.00000   0.00000  -0.01329   0.00000   0.13403
  42        3S          1.97449  -0.14276   0.00000   6.89184   0.00000
  43        3PX         0.30237  -3.32957   0.00000  -2.18602   0.00000
  44        3PY         1.94196  -1.00347   0.00000  -2.55555   0.00000
  45        3PZ         0.00000   0.00000  -0.02649   0.00000  -0.08179
  46        4XX        -0.09515   0.07974   0.00000  -0.03973   0.00000
  47        4YY        -0.04438  -0.10523   0.00000   0.01721   0.00000
  48        4ZZ         0.02846   0.04278   0.00000   0.00083   0.00000
  49        4XY        -0.09929   0.05805   0.00000   0.02775   0.00000
  50        4XZ         0.00000   0.00000   0.06860   0.00000   0.48260
  51        4YZ         0.00000   0.00000  -0.51198   0.00000  -0.03283
  52 7   H  1S         -0.41265   0.77906   0.00000   0.14471   0.00000
  53        2S         -0.68284   1.31155   0.00000   0.48600   0.00000
  54 8   C  1S          0.02015   0.00574   0.00000   0.02973   0.00000
  55        2S          0.46714  -0.14204   0.00000   0.78772   0.00000
  56        2PX         0.08006  -0.10321   0.00000   0.01694   0.00000
  57        2PY         0.08028   0.15044   0.00000  -0.08807   0.00000
  58        2PZ         0.00000   0.00000   0.11300   0.00000   0.09232
  59        3S         -2.09868  -1.45743   0.00000  -3.55721   0.00000
  60        3PX        -1.57690   0.56160   0.00000   0.00731   0.00000
  61        3PY        -0.94672   1.47866   0.00000   2.36682   0.00000
  62        3PZ         0.00000   0.00000  -0.01249   0.00000   0.02434
  63        4XX        -0.06439   0.00646   0.00000   0.06454   0.00000
  64        4YY         0.11828  -0.06764   0.00000  -0.01784   0.00000
  65        4ZZ         0.00759   0.05525   0.00000   0.02730   0.00000
  66        4XY        -0.00960   0.04368   0.00000   0.14703   0.00000
  67        4XZ         0.00000   0.00000  -0.31630   0.00000  -0.24242
  68        4YZ         0.00000   0.00000   0.04513   0.00000   0.31303
  69 9   H  1S         -0.31771   0.43166   0.00000   0.44291   0.00000
  70        2S         -0.40780   0.46493   0.00000   0.77699   0.00000
  71 10  H  1S          0.46836  -0.32742   0.00000  -0.27150   0.00000
  72        2S          0.56560  -0.34587   0.00000  -0.36053   0.00000
                          51        52        53        54        55
                           V         V         V         V         V
     Eigenvalues --     1.54129   1.65833   1.76693   1.82341   1.87591
   1 1   C  1S          0.00000   0.00000   0.00000  -0.01016  -0.01212
   2        2S          0.00000   0.00000   0.00000  -0.02447  -0.12321
   3        2PX         0.00000   0.00000   0.00000   0.12483   0.01039
   4        2PY         0.00000   0.00000   0.00000   0.03011  -0.18888
   5        2PZ         0.08715   0.03229  -0.01268   0.00000   0.00000
   6        3S          0.00000   0.00000   0.00000  -0.66045  -0.02120
   7        3PX         0.00000   0.00000   0.00000   0.25945   0.06464
   8        3PY         0.00000   0.00000   0.00000  -0.48619  -0.18384
   9        3PZ        -0.07076  -0.08200   0.02639   0.00000   0.00000
  10        4XX         0.00000   0.00000   0.00000   0.25278  -0.15396
  11        4YY         0.00000   0.00000   0.00000   0.06359   0.38340
  12        4ZZ         0.00000   0.00000   0.00000  -0.34746  -0.30419
  13        4XY         0.00000   0.00000   0.00000   0.20863  -0.11046
  14        4XZ         0.06063   0.49011  -0.46706   0.00000   0.00000
  15        4YZ        -0.47336   0.46480  -0.40151   0.00000   0.00000
  16 2   H  1S          0.00000   0.00000   0.00000  -0.26783   0.16978
  17        2S          0.00000   0.00000   0.00000   0.10165  -0.10590
  18 3   H  1S          0.00000   0.00000   0.00000  -0.05564  -0.36612
  19        2S          0.00000   0.00000   0.00000  -0.17615  -0.03237
  20 4   C  1S          0.00000   0.00000   0.00000  -0.01447  -0.02390
  21        2S          0.00000   0.00000   0.00000  -0.47607   0.02083
  22        2PX         0.00000   0.00000   0.00000  -0.06499  -0.12705
  23        2PY         0.00000   0.00000   0.00000  -0.24176   0.08353
  24        2PZ         0.08007  -0.00165  -0.08285   0.00000   0.00000
  25        3S          0.00000   0.00000   0.00000   0.85247   0.39846
  26        3PX         0.00000   0.00000   0.00000   1.07142   0.18176
  27        3PY         0.00000   0.00000   0.00000   0.15896  -0.30809
  28        3PZ         0.03639   0.20607  -0.00421   0.00000   0.00000
  29        4XX         0.00000   0.00000   0.00000  -0.04640   0.51072
  30        4YY         0.00000   0.00000   0.00000   0.42296  -0.24526
  31        4ZZ         0.00000   0.00000   0.00000  -0.46712  -0.29121
  32        4XY         0.00000   0.00000   0.00000   0.08468   0.09496
  33        4XZ        -0.42222  -0.01780   0.23770   0.00000   0.00000
  34        4YZ        -0.17569   0.18576   0.28491   0.00000   0.00000
  35 5   H  1S          0.00000   0.00000   0.00000   0.08410  -0.37971
  36        2S          0.00000   0.00000   0.00000   0.26613   0.08386
  37 6   C  1S          0.00000   0.00000   0.00000  -0.01447  -0.02390
  38        2S          0.00000   0.00000   0.00000  -0.47605   0.02082
  39        2PX         0.00000   0.00000   0.00000   0.06499   0.12705
  40        2PY         0.00000   0.00000   0.00000   0.24176  -0.08354
  41        2PZ         0.08007   0.00165  -0.08286   0.00000   0.00000
  42        3S          0.00000   0.00000   0.00000   0.85232   0.39849
  43        3PX         0.00000   0.00000   0.00000  -1.07134  -0.18181
  44        3PY         0.00000   0.00000   0.00000  -0.15888   0.30808
  45        3PZ         0.03639  -0.20607  -0.00422   0.00000   0.00000
  46        4XX         0.00000   0.00000   0.00000  -0.04639   0.51072
  47        4YY         0.00000   0.00000   0.00000   0.42296  -0.24526
  48        4ZZ         0.00000   0.00000   0.00000  -0.46714  -0.29121
  49        4XY         0.00000   0.00000   0.00000   0.08470   0.09491
  50        4XZ         0.42223  -0.01780  -0.23770   0.00000   0.00000
  51        4YZ         0.17569   0.18575  -0.28491   0.00000   0.00000
  52 7   H  1S          0.00000   0.00000   0.00000   0.08408  -0.37967
  53        2S          0.00000   0.00000   0.00000   0.26610   0.08386
  54 8   C  1S          0.00000   0.00000   0.00000  -0.01016  -0.01212
  55        2S          0.00000   0.00000   0.00000  -0.02448  -0.12323
  56        2PX         0.00000   0.00000   0.00000  -0.12483  -0.01040
  57        2PY         0.00000   0.00000   0.00000  -0.03011   0.18888
  58        2PZ         0.08715  -0.03229  -0.01268   0.00000   0.00000
  59        3S          0.00000   0.00000   0.00000  -0.66036  -0.02122
  60        3PX         0.00000   0.00000   0.00000  -0.25944  -0.06461
  61        3PY         0.00000   0.00000   0.00000   0.48615   0.18387
  62        3PZ        -0.07076   0.08200   0.02639   0.00000   0.00000
  63        4XX         0.00000   0.00000   0.00000   0.25279  -0.15395
  64        4YY         0.00000   0.00000   0.00000   0.06358   0.38339
  65        4ZZ         0.00000   0.00000   0.00000  -0.34747  -0.30419
  66        4XY         0.00000   0.00000   0.00000   0.20863  -0.11046
  67        4XZ        -0.06062   0.49012   0.46707   0.00000   0.00000
  68        4YZ         0.47337   0.46478   0.40151   0.00000   0.00000
  69 9   H  1S          0.00000   0.00000   0.00000  -0.26784   0.16979
  70        2S          0.00000   0.00000   0.00000   0.10164  -0.10589
  71 10  H  1S          0.00000   0.00000   0.00000  -0.05564  -0.36611
  72        2S          0.00000   0.00000   0.00000  -0.17614  -0.03239
                          56        57        58        59        60
                           V         V         V         V         V
     Eigenvalues --     1.94649   2.05192   2.09990   2.11490   2.16047
   1 1   C  1S          0.00800  -0.02698   0.00000  -0.02539  -0.00267
   2        2S         -0.06784  -0.31812   0.00000  -0.19655   0.03105
   3        2PX         0.19255   0.14098   0.00000   0.12838  -0.09544
   4        2PY        -0.00810  -0.20239   0.00000   0.01720   0.05501
   5        2PZ         0.00000   0.00000  -0.00574   0.00000   0.00000
   6        3S         -0.59991   0.54668   0.00000   0.86525   1.01520
   7        3PX        -0.16218  -0.43009   0.00000  -0.16404  -0.00373
   8        3PY        -0.33729  -0.24676   0.00000   0.08481  -0.10839
   9        3PZ         0.00000   0.00000  -0.21253   0.00000   0.00000
  10        4XX         0.17094  -0.03991   0.00000   0.46032  -0.14635
  11        4YY        -0.31219   0.41431   0.00000  -0.00651   0.42242
  12        4ZZ         0.04383  -0.49757   0.00000  -0.47336  -0.16247
  13        4XY        -0.23734  -0.19224   0.00000   0.44734   0.51087
  14        4XZ         0.00000   0.00000   0.25462   0.00000   0.00000
  15        4YZ         0.00000   0.00000  -0.42372   0.00000   0.00000
  16 2   H  1S          0.12206   0.11128   0.00000  -0.56873  -0.20856
  17        2S          0.11733   0.06296   0.00000   0.14332  -0.05855
  18 3   H  1S          0.22902  -0.41350   0.00000  -0.05625  -0.39465
  19        2S         -0.18481  -0.08834   0.00000  -0.04650  -0.04243
  20 4   C  1S         -0.00430  -0.02033   0.00000  -0.02241   0.02276
  21        2S         -0.16552  -0.43400   0.00000   0.00380   0.41767
  22        2PX        -0.01183  -0.11879   0.00000   0.11096   0.23681
  23        2PY         0.09476  -0.13129   0.00000   0.15957  -0.09819
  24        2PZ         0.00000   0.00000   0.06386   0.00000   0.00000
  25        3S          0.52270   1.08420   0.00000   0.64740  -0.83119
  26        3PX         0.72275   0.14112   0.00000  -0.17467  -0.95428
  27        3PY         0.07477   0.77781   0.00000   1.08277   0.35582
  28        3PZ         0.00000   0.00000   0.41911   0.00000   0.00000
  29        4XX        -0.15251   0.35129   0.00000  -0.20473  -0.16446
  30        4YY        -0.07169  -0.14422   0.00000   0.30561  -0.05863
  31        4ZZ         0.14246  -0.27635   0.00000  -0.07074   0.34751
  32        4XY        -0.55312  -0.17278   0.00000  -0.08622   0.20324
  33        4XZ         0.00000   0.00000   0.46982   0.00000   0.00000
  34        4YZ         0.00000   0.00000   0.43276   0.00000   0.00000
  35 5   H  1S          0.52105  -0.11090   0.00000   0.14211  -0.03577
  36        2S          0.09038   0.05886   0.00000   0.07926  -0.13511
  37 6   C  1S          0.00430   0.02033   0.00000   0.02241   0.02276
  38        2S          0.16554   0.43400   0.00000  -0.00383   0.41764
  39        2PX        -0.01182  -0.11880   0.00000   0.11098  -0.23679
  40        2PY         0.09475  -0.13128   0.00000   0.15956   0.09820
  41        2PZ         0.00000   0.00000  -0.06386   0.00000   0.00000
  42        3S         -0.52275  -1.08415   0.00000  -0.64731  -0.83110
  43        3PX         0.72283   0.14104   0.00000  -0.17477   0.95425
  44        3PY         0.07475   0.77784   0.00000   1.08282  -0.35588
  45        3PZ         0.00000   0.00000  -0.41911   0.00000   0.00000
  46        4XX         0.15256  -0.35128   0.00000   0.20474  -0.16444
  47        4YY         0.07165   0.14422   0.00000  -0.30560  -0.05865
  48        4ZZ        -0.14246   0.27635   0.00000   0.07072   0.34750
  49        4XY         0.55312   0.17280   0.00000   0.08620   0.20326
  50        4XZ         0.00000   0.00000   0.46983   0.00000   0.00000
  51        4YZ         0.00000   0.00000   0.43275   0.00000   0.00000
  52 7   H  1S         -0.52108   0.11090   0.00000  -0.14210  -0.03578
  53        2S         -0.09040  -0.05884   0.00000  -0.07925  -0.13510
  54 8   C  1S         -0.00800   0.02698   0.00000   0.02539  -0.00266
  55        2S          0.06783   0.31812   0.00000   0.19654   0.03106
  56        2PX         0.19255   0.14097   0.00000   0.12838   0.09544
  57        2PY        -0.00810  -0.20238   0.00000   0.01720  -0.05501
[...]
     4   6     0.05   0.03   0.00    -0.05  -0.02   0.00     0.02   0.00   0.00
     5   1    -0.60  -0.30   0.00     0.60   0.30   0.00    -0.18  -0.09   0.00
     6   6    -0.05  -0.03   0.00    -0.05  -0.02   0.00     0.02   0.00   0.00
     7   1     0.60   0.30   0.00     0.60   0.30   0.00    -0.18  -0.09   0.00
     8   6    -0.01   0.01   0.00    -0.01   0.01   0.00    -0.05   0.02   0.00
     9   1     0.13   0.06   0.00     0.11   0.05   0.00     0.50   0.23   0.00
    10   1    -0.01  -0.18   0.00    -0.01  -0.19   0.00    -0.03  -0.38   0.00
                    22                     23                     24
                    A'                     A'                     A'
 Frequencies --  3165.4382              3246.8678              3247.2643
 Red. masses --     1.0669                 1.1157                 1.1154
 Frc consts  --     6.2985                 6.9300                 6.9296
 IR Inten    --     0.0001                 0.0000                32.9903
  Atom  AN      X      Y      Z        X      Y      Z        X      Y      Z
     1   6     0.04  -0.02   0.00    -0.03  -0.06   0.00     0.03   0.06   0.00
     2   1    -0.50  -0.23   0.00     0.38   0.16   0.00    -0.38  -0.16   0.00
     3   1     0.02   0.38   0.00     0.02   0.57   0.00    -0.02  -0.56   0.00
     4   6    -0.02  -0.01   0.00    -0.01   0.00   0.00     0.01   0.00   0.00
     5   1     0.19   0.09   0.00     0.06   0.03   0.00    -0.08  -0.04   0.00
     6   6     0.02   0.01   0.00     0.01   0.00   0.00     0.01   0.00   0.00
     7   1    -0.19  -0.09   0.00    -0.06  -0.03   0.00    -0.08  -0.04   0.00
     8   6    -0.04   0.02   0.00     0.03   0.06   0.00     0.03   0.06   0.00
     9   1     0.50   0.23   0.00    -0.38  -0.16   0.00    -0.38  -0.16   0.00
    10   1    -0.02  -0.38   0.00    -0.02  -0.57   0.00    -0.02  -0.56   0.00

 -------------------
 - Thermochemistry -
 -------------------
 Temperature   298.150 Kelvin.  Pressure   1.00000 Atm.
 Atom     1 has atomic number  6 and mass  12.00000
 Atom     2 has atomic number  1 and mass   1.00783
 Atom     3 has atomic number  1 and mass   1.00783
 Atom     4 has atomic number  6 and mass  12.00000
 Atom     5 has atomic number  1 and mass   1.00783
 Atom     6 has atomic number  6 and mass  12.00000
 Atom     7 has atomic number  1 and mass   1.00783
 Atom     8 has atomic number  6 and mass  12.00000
 Atom     9 has atomic number  1 and mass   1.00783
 Atom    10 has atomic number  1 and mass   1.00783
 Molecular mass:    54.04695 amu.
 Principal axes and moments of inertia in atomic units:
                           1         2         3
     Eigenvalues --    42.65030 409.40929 452.05959
           X           -0.54545   0.83814   0.00000
           Y            0.83814   0.54545   0.00000
           Z            0.00000   0.00000   1.00000
 This molecule is an asymmetric top.
 Rotational symmetry number  1.
 Rotational temperatures (Kelvin)      2.03079     0.21156     0.19160
 Rotational constants (GHZ):          42.31485     4.40816     3.99226
 Zero-point vibrational energy     224457.8 (Joules/Mol)
                                   53.64669 (Kcal/Mol)
 Warning -- explicit consideration of   4 degrees of freedom as
           vibrations may cause significant error
 Vibrational temperatures:    255.53   429.67   743.12   775.56  1124.59
          (Kelvin)           1305.26  1335.18  1340.79  1443.04  1454.03
                             1531.16  1785.30  1912.19  1915.80  2064.77
                             2153.42  2413.43  2489.06  4527.32  4542.18
                             4552.70  4554.35  4671.51  4672.08
 
 Zero-point correction=                           0.085491 (Hartree/Particle)
 Thermal correction to Energy=                    0.090134
 Thermal correction to Enthalpy=                  0.091079
 Thermal correction to Gibbs Free Energy=         0.059049
 Sum of electronic and zero-point Energies=           -155.906647
 Sum of electronic and thermal Energies=              -155.902004
 Sum of electronic and thermal Enthalpies=            -155.901060
 Sum of electronic and thermal Free Energies=         -155.933089
 
                     E (Thermal)             CV                S
                      KCal/Mol        Cal/Mol-Kelvin    Cal/Mol-Kelvin
 Total                   56.560             15.720             67.411
 Electronic               0.000              0.000              0.000
 Translational            0.889              2.981             37.884
 Rotational               0.889              2.981             23.583
 Vibrational             54.783              9.758              5.944
 Vibration     1          0.628              1.870              2.353
 Vibration     2          0.692              1.676              1.425
 Vibration     3          0.872              1.213              0.618
 Vibration     4          0.894              1.164              0.567
                       Q            Log10(Q)             Ln(Q)
 Total Bot       0.690593D-27        -27.160778        -62.540002
 Total V=0       0.145370D+13         12.162474         28.005130
 Vib (Bot)       0.139036D-38        -38.856874        -89.471259
 Vib (Bot)    1  0.113183D+01          0.053781          0.123835
 Vib (Bot)    2  0.637306D+00         -0.195652         -0.450505
 Vib (Bot)    3  0.313519D+00         -0.503736         -1.159895
 Vib (Bot)    4  0.294184D+00         -0.531380         -1.223548
 Vib (V=0)       0.292669D+01          0.466377          1.073874
 Vib (V=0)    1  0.173735D+01          0.239887          0.552361
 Vib (V=0)    2  0.131004D+01          0.117283          0.270055
 Vib (V=0)    3  0.109016D+01          0.037492          0.086329
 Vib (V=0)    4  0.108012D+01          0.033474          0.077076
 Electronic      0.100000D+01          0.000000          0.000000
 Translational   0.156175D+08          7.193612         16.563904
 Rotational      0.318042D+05          4.502484         10.367353
 ***** Axes restored to original set *****
 -------------------------------------------------------------------
 Center     Atomic                   Forces (Hartrees/Bohr)
 Number     Number              X              Y              Z
 -------------------------------------------------------------------
      1        6           0.000019076    0.000055098    0.000000000
      2        1          -0.000010894   -0.000013881    0.000000000
      3        1          -0.000003298   -0.000015010    0.000000000
      4        6          -0.000054531   -0.000008476    0.000000000
      5        1           0.000030101    0.000013170    0.000000000
      6        6           0.000056467    0.000006600    0.000000000
      7        1          -0.000030360   -0.000012347    0.000000000
      8        6          -0.000019915   -0.000052835    0.000000000
      9        1           0.000010645    0.000012875    0.000000000
     10        1           0.000002710    0.000014806    0.000000000
 -------------------------------------------------------------------
 Cartesian Forces:  Max     0.000056467 RMS     0.000023146

 GradGradGradGradGradGradGradGradGradGradGradGradGradGradGradGradGradGrad
 Berny optimization.
 Internal  Forces:  Max     0.000032503 RMS     0.000013596
 Search for a local minimum.
 Step number   1 out of a maximum of    2
 All quantities printed in internal units (Hartrees-Bohrs-Radians)
 Second derivative matrix not updated -- analytic derivatives used.
 ITU=  0
     Eigenvalues ---    0.00788   0.02352   0.02405   0.02959   0.03221
     Eigenvalues ---    0.03855   0.04047   0.10707   0.10918   0.11227
     Eigenvalues ---    0.11385   0.12050   0.13792   0.15744   0.18857
     Eigenvalues ---    0.34717   0.35174   0.35639   0.36063   0.36147
     Eigenvalues ---    0.36629   0.36671   0.61638   0.62653
 Angle between quadratic step and forces=  24.78 degrees.
 Linear search not attempted -- first point.
 Iteration  1 RMS(Cart)=  0.00005205 RMS(Int)=  0.00000000
 Iteration  2 RMS(Cart)=  0.00000000 RMS(Int)=  0.00000000
 ClnCor:  largest displacement from symmetrization is 3.29D-13 for atom     5.
 Variable       Old X    -DE/DX   Delta X   Delta X   Delta X     New X
                                 (Linear)    (Quad)   (Total)
    R1        2.05590  -0.00002   0.00000  -0.00005  -0.00005   2.05585
    R2        2.05182   0.00002   0.00000   0.00005   0.00005   2.05187
    R3        2.53330  -0.00001   0.00000  -0.00001  -0.00001   2.53329
    R4        2.06082  -0.00003   0.00000  -0.00010  -0.00010   2.06072
    R5        2.75433  -0.00003   0.00000  -0.00006  -0.00006   2.75426
    R6        2.06082  -0.00003   0.00000  -0.00010  -0.00010   2.06072
    R7        2.53330  -0.00001   0.00000  -0.00001  -0.00001   2.53329
    R8        2.05590  -0.00002   0.00000  -0.00005  -0.00005   2.05585
    R9        2.05182   0.00002   0.00000   0.00005   0.00005   2.05187
    A1        2.03543   0.00000   0.00000  -0.00004  -0.00004   2.03539
    A2        2.12137   0.00001   0.00000   0.00012   0.00012   2.12149
    A3        2.12638  -0.00001   0.00000  -0.00008  -0.00008   2.12630
    A4        2.08445   0.00001   0.00000   0.00003   0.00003   2.08448
    A5        2.16983  -0.00002   0.00000  -0.00009  -0.00009   2.16974
    A6        2.02890   0.00001   0.00000   0.00006   0.00006   2.02896
    A7        2.02888   0.00001   0.00000   0.00008   0.00008   2.02896
    A8        2.16985  -0.00002   0.00000  -0.00011  -0.00011   2.16974
    A9        2.08445   0.00001   0.00000   0.00003   0.00003   2.08449
   A10        2.12138   0.00001   0.00000   0.00011   0.00011   2.12149
   A11        2.12637  -0.00001   0.00000  -0.00007  -0.00007   2.12630
   A12        2.03543   0.00000   0.00000  -0.00004  -0.00004   2.03539
    D1        3.14159   0.00000   0.00000   0.00000   0.00000   3.14159
    D2        0.00000   0.00000   0.00000   0.00000   0.00000   0.00000
    D3        0.00000   0.00000   0.00000   0.00000   0.00000   0.00000
    D4        3.14159   0.00000   0.00000   0.00000   0.00000   3.14159
    D5        0.00000   0.00000   0.00000   0.00000   0.00000   0.00000
    D6        3.14159   0.00000   0.00000   0.00000   0.00000   3.14159
    D7        3.14159   0.00000   0.00000   0.00000   0.00000   3.14159
    D8        0.00000   0.00000   0.00000   0.00000   0.00000   0.00000
    D9        0.00000   0.00000   0.00000   0.00000   0.00000   0.00000
   D10        3.14159   0.00000   0.00000   0.00000   0.00000   3.14159
   D11        3.14159   0.00000   0.00000   0.00000   0.00000   3.14159
   D12        0.00000   0.00000   0.00000   0.00000   0.00000   0.00000
         Item               Value     Threshold  Converged?
 Maximum Force            0.000033     0.000450     YES
 RMS     Force            0.000014     0.000300     YES
 Maximum Displacement     0.000142     0.001800     YES
 RMS     Displacement     0.000052     0.001200     YES
 Predicted change in Energy=-1.155664D-08
 Optimization completed.
    -- Stationary point found.
                           ----------------------------
                           !   Optimized Parameters   !
                           ! (Angstroms and Degrees)  !
 --------------------------                            --------------------------
 ! Name  Definition              Value          Derivative Info.                !
 --------------------------------------------------------------------------------
 ! R1    R(1,2)                  1.0879         -DE/DX =    0.0                 !
 ! R2    R(1,3)                  1.0858         -DE/DX =    0.0                 !
 ! R3    R(1,4)                  1.3406         -DE/DX =    0.0                 !
 ! R4    R(4,5)                  1.0905         -DE/DX =    0.0                 !
 ! R5    R(4,6)                  1.4575         -DE/DX =    0.0                 !
 ! R6    R(6,7)                  1.0905         -DE/DX =    0.0                 !
 ! R7    R(6,8)                  1.3406         -DE/DX =    0.0                 !
 ! R8    R(8,9)                  1.0879         -DE/DX =    0.0                 !
 ! R9    R(8,10)                 1.0858         -DE/DX =    0.0                 !
 ! A1    A(2,1,3)              116.6217         -DE/DX =    0.0                 !
 ! A2    A(2,1,4)              121.5456         -DE/DX =    0.0                 !
 ! A3    A(3,1,4)              121.8327         -DE/DX =    0.0                 !
 ! A4    A(1,4,5)              119.4305         -DE/DX =    0.0                 !
 ! A5    A(1,4,6)              124.3223         -DE/DX =    0.0                 !
 ! A6    A(5,4,6)              116.2472         -DE/DX =    0.0                 !
 ! A7    A(4,6,7)              116.2462         -DE/DX =    0.0                 !
 ! A8    A(4,6,8)              124.3235         -DE/DX =    0.0                 !
 ! A9    A(7,6,8)              119.4304         -DE/DX =    0.0                 !
 ! A10   A(6,8,9)              121.5464         -DE/DX =    0.0                 !
 ! A11   A(6,8,10)             121.832          -DE/DX =    0.0                 !
 ! A12   A(9,8,10)             116.6216         -DE/DX =    0.0                 !
 ! D1    D(2,1,4,5)            180.0            -DE/DX =    0.0                 !
 ! D2    D(2,1,4,6)              0.0            -DE/DX =    0.0                 !
 ! D3    D(3,1,4,5)              0.0            -DE/DX =    0.0                 !
 ! D4    D(3,1,4,6)            180.0            -DE/DX =    0.0                 !
 ! D5    D(1,4,6,7)              0.0            -DE/DX =    0.0                 !
 ! D6    D(1,4,6,8)            180.0            -DE/DX =    0.0                 !
 ! D7    D(5,4,6,7)            180.0            -DE/DX =    0.0                 !
 ! D8    D(5,4,6,8)              0.0            -DE/DX =    0.0                 !
 ! D9    D(4,6,8,9)              0.0            -DE/DX =    0.0                 !
 ! D10   D(4,6,8,10)           180.0            -DE/DX =    0.0                 !
 ! D11   D(7,6,8,9)            180.0            -DE/DX =    0.0                 !
 ! D12   D(7,6,8,10)             0.0            -DE/DX =    0.0                 !
 --------------------------------------------------------------------------------
 GradGradGradGradGradGradGradGradGradGradGradGradGradGradGradGradGradGrad

 1\1\GINC-NISER-THINKCENTRE-M93P\Freq\RB3LYP\6-31G(d)\C4H6\STUDENT\02-M
 ar-2021\0\\#N Geom=AllCheck Guess=TCheck SCRF=Check GenChk RB3LYP/6-31
 G(d) Freq\\Title Card Required\\0,1\C,1.107129,-1.484654,0.\H,2.099989
 ,-1.039868,0.\H,1.059957,-2.569406,0.\C,-0.000011,-0.72877,0.\H,-0.978
 112,-1.211048,0.\C,0.,0.728758,0.\H,0.97811,1.211018,0.\C,-1.107123,1.
 484663,0.\H,-2.099997,1.039911,0.\H,-1.059916,2.569414,0.\\Version=EM6
 4L-G09RevC.01\State=1-A'\HF=-155.9921386\RMSD=2.831e-09\RMSF=2.315e-05
 \ZeroPoint=0.0854914\Thermal=0.0901345\Dipole=0.0000007,-0.0000048,0.\
 DipoleDeriv=0.042342,0.0901435,0.,0.1539711,-0.0487287,0.,0.,0.,-0.311
 5506,-0.0692942,-0.0448684,0.,-0.087184,0.0035783,0.,0.,0.,0.1389866,0
 .0371798,-0.0179464,0.,0.0105207,-0.1008358,0.,0.,0.,0.1348614,0.08417
 94,0.0556839,0.,-0.0488674,0.1604933,0.,0.,0.,-0.072268,-0.0944051,-0.
 0830093,0.,-0.0284401,-0.0145124,0.,0.,0.,0.1099717,0.0841802,0.055677
 3,0.,-0.0488766,0.1605018,0.,0.,0.,-0.0722685,-0.0944095,-0.0830082,0.
 ,-0.0284369,-0.0145103,0.,0.,0.,0.1099701,0.0423478,0.0901448,0.,0.153
 9745,-0.0487314,0.,0.,0.,-0.3115508,-0.0692971,-0.0448664,0.,-0.087179
 8,0.0035834,0.,0.,0.,0.1389877,0.0371769,-0.0179509,0.,0.0105184,-0.10
 08382,0.,0.,0.,0.1348603\Polar=56.1372889,-19.9574987,60.720957,0.,0.,
 15.5144386\PG=CS [SG(C4H6)]\NImag=0\\0.77630255,-0.09471225,0.72088916
 ,0.,0.,0.10362148,-0.28775877,-0.10479812,0.,0.30856323,-0.10846999,-0
 .10998905,0.,0.11429197,0.10619412,0.,0.,-0.03400203,0.,0.,0.02254302,
 -0.05985803,-0.01995604,0.,0.00186990,-0.02641273,0.,0.05523739,-0.015
 38404,-0.34429298,0.,0.00126234,-0.00783806,0.,0.01467269,0.36431412,0
 .,0.,-0.03250428,0.,0.,0.00218877,0.,0.,0.02212956,-0.41272896,0.19799
 238,0.,-0.02236013,0.01681632,0.,0.00523755,-0.00389677,0.,0.80846474,
 0.18724753,-0.24312334,0.,-0.01334713,0.01176595,0.,0.02927712,-0.0136
 1564,0.,-0.09229977,0.65596634,0.,0.,-0.04906498,0.,0.,0.00470491,0.,0
 .,0.00428584,0.,0.,0.13262425,-0.02230976,-0.01341443,0.,-0.00253560,0
 .00304112,0.,0.00126823,0.00028259,0.,-0.27304484,-0.10736091,0.,0.293
 78872,0.01857226,0.01118229,0.,0.00335411,-0.00138527,0.,-0.00011493,0
 .00111590,0.,-0.10880181,-0.11246125,0.,0.11574971,0.11772758,0.,0.,0.
 00526199,0.,0.,0.01142392,0.,0.,-0.00719758,0.,0.,-0.04143637,0.,0.,0.
 02703155,-0.00213271,0.03935388,0.,0.00134637,0.00158424,0.,-0.0044462
 1,0.00317993,0.,-0.10060841,-0.02422362,0.,0.00027214,-0.02970433,0.,0
 .80846436,0.02155998,-0.03360415,0.,-0.00245060,0.00142325,0.,0.000596
 43,0.00086071,0.,-0.02422276,-0.25449257,0.,0.00100203,-0.01271940,0.,
 -0.09231161,0.65597294,0.,0.,0.00601240,0.,0.,-0.00784515,0.,0.,0.0126
 6666,0.,0.,-0.06496691,0.,0.,0.00301911,0.,0.,0.13262384,0.00122137,0.
 00082404,0.,0.00036750,-0.00058072,0.,0.00023341,-0.00009132,0.,0.0002
 7141,0.00100170,0.,0.00073899,0.00054825,0.,-0.27304795,-0.10735814,0.
 ,0.29379236,-0.00136607,0.00168057,0.,0.00133018,-0.00010425,0.,0.0004
 3248,0.00034342,0.,-0.02970477,-0.01272013,0.,0.00054833,-0.00537968,0
 .,-0.10879852,-0.11245681,0.,0.11574611,0.11772431,0.,0.,-0.00132740,0
 .,0.,0.00025458,0.,0.,-0.00023974,0.,0.,0.00301929,0.,0.,0.00320990,0.
 ,0.,-0.04143648,0.,0.,0.02703163,0.00615119,-0.00710299,0.,0.00028737,
 0.00000141,0.,0.00082590,-0.00034565,0.,-0.00213184,0.02155892,0.,0.00
 122131,-0.00136583,0.,-0.41272593,0.18725388,0.,-0.02230990,0.01857300
 ,0.,0.77630923,-0.00710318,-0.00203491,0.,0.00044763,0.00004143,0.,0.0
 0136598,-0.00074891,0.,0.03935328,-0.03360360,0.,0.00082369,0.00168076
 ,0.,0.19799993,-0.24313317,0.,-0.01341365,0.01118200,0.,-0.09471495,0.
 72088891,0.,0.,0.00199188,0.,0.,0.00016138,0.,0.,-0.00015045,0.,0.,0.0
 0601236,0.,0.,-0.00132735,0.,0.,-0.04906420,0.,0.,0.00526195,0.,0.,0.1
 0362063,0.00028729,0.00044760,0.,0.00022059,-0.00016343,0.,-0.00000045
 ,0.00007307,0.,0.00134647,-0.00245040,0.,0.00036742,0.00133009,0.,-0.0
 2235953,-0.01334633,0.,-0.00253540,0.00335409,0.,-0.28776815,-0.104793
 34,0.,0.30857267,0.00000142,0.00004140,0.,-0.00016344,-0.00012574,0.,-
 0.00010818,0.00001761,0.,0.00158388,0.00142343,0.,-0.00058078,-0.00010
 430,0.,0.01681719,0.01176605,0.,0.00304117,-0.00138538,0.,-0.10846477,
 -0.10998225,0.,0.11428667,0.10618654,0.,0.,0.00016138,0.,0.,0.00030421
 ,0.,0.,0.00026637,0.,0.,-0.00784506,0.,0.,0.00025457,0.,0.,0.00470481,
 0.,0.,0.01142399,0.,0.,-0.03400177,0.,0.,0.02254270,0.00082584,0.00136
 592,0.,-0.00000046,-0.00010818,0.,-0.00036770,0.00024716,0.,-0.0044460
 0,0.00059657,0.,0.00023337,0.00043248,0.,0.00523786,0.02927711,0.,0.00
 126822,-0.00011483,0.,-0.05985917,-0.01996539,0.,0.00186909,-0.0264131
 5,0.,0.05523894,-0.00034566,-0.00074899,0.,0.00007306,0.00001762,0.,0.
 00024718,-0.00015619,0.,0.00318001,0.00086081,0.,-0.00009135,0.0003433
 8,0.,-0.00389707,-0.01361685,0.,0.00028257,0.00111596,0.,-0.01539303,-
 0.34429025,0.,0.00126199,-0.00783735,0.,0.01468228,0.36431186,0.,0.,-0
 .00015044,0.,0.,0.00026639,0.,0.,-0.00144514,0.,0.,0.01266666,0.,0.,-0
 .00023976,0.,0.,0.00428593,0.,0.,-0.00719773,0.,0.,-0.03250444,0.,0.,0
 .00218880,0.,0.,0.02212972\\-0.00001908,-0.00005510,0.,0.00001089,0.00
 001388,0.,0.00000330,0.00001501,0.,0.00005453,0.00000848,0.,-0.0000301
 0,-0.00001317,0.,-0.00005647,-0.00000660,0.,0.00003036,0.00001235,0.,0
 .00001991,0.00005283,0.,-0.00001065,-0.00001288,0.,-0.00000271,-0.0000
 1481,0.\\\@


  THE LARGE PRINT GIVETH,
  AND THE SMALL PRINT TAKETH AWAY.

                     -- TOM WAITS
 Job cpu time:  0 days  0 hours  0 minutes 24.2 seconds.
 File lengths (MBytes):  RWF=     10 Int=      0 D2E=      0 Chk=      1 Scr=      1
 Normal termination of Gaussian 09 at Tue Mar  2 11:21:33 2021.
